 LAMMPS lj fcc 111 crystal dir:  xx strain:  0 density: 1.05603

        4752 atoms
           2 atom types

   0.00000000       12.124735290831254      xlo xhi
   0.00000000       11.454904119296259      ylo yhi
   0.00000000       32.399361522384403      zlo zhi

 Atoms

         1         2      0.826686      0.477288      0.449991
         2         2      0.275562      1.431863      0.449991
         3         2      1.928935      0.477288      0.449991
         4         2      1.377811      1.431863      0.449991
         5         2      3.031184      0.477288      0.449991
         6         2      2.480059      1.431863      0.449991
         7         2      4.133432      0.477288      0.449991
         8         2      3.582308      1.431863      0.449991
         9         2      5.235681      0.477288      0.449991
        10         2      4.684557      1.431863      0.449991
        11         2     -5.786805      0.477288      0.449991
        12         2      5.786805      1.431863      0.449991
        13         2     -4.684557      0.477288      0.449991
        14         2     -5.235681      1.431863      0.449991
        15         2     -3.582308      0.477288      0.449991
        16         2     -4.133432      1.431863      0.449991
        17         2     -2.480059      0.477288      0.449991
        18         2     -3.031184      1.431863      0.449991
        19         2     -1.377811      0.477288      0.449991
        20         2     -1.928935      1.431863      0.449991
        21         2     -0.275562      0.477288      0.449991
        22         2     -0.826686      1.431863      0.449991
        23         2      0.826686      2.386438      0.449991
        24         2      0.275562      3.341014      0.449991
        25         2      1.928935      2.386438      0.449991
        26         2      1.377811      3.341014      0.449991
        27         2      3.031184      2.386438      0.449991
        28         2      2.480059      3.341014      0.449991
        29         2      4.133432      2.386438      0.449991
        30         2      3.582308      3.341014      0.449991
        31         2      5.235681      2.386438      0.449991
        32         2      4.684557      3.341014      0.449991
        33         2     -5.786805      2.386438      0.449991
        34         2      5.786805      3.341014      0.449991
        35         2     -4.684557      2.386438      0.449991
        36         2     -5.235681      3.341014      0.449991
        37         2     -3.582308      2.386438      0.449991
        38         2     -4.133432      3.341014      0.449991
        39         2     -2.480059      2.386438      0.449991
        40         2     -3.031184      3.341014      0.449991
        41         2     -1.377811      2.386438      0.449991
        42         2     -1.928935      3.341014      0.449991
        43         2     -0.275562      2.386438      0.449991
        44         2     -0.826686      3.341014      0.449991
        45         2      0.826686      4.295589      0.449991
        46         2      0.275562      5.250164      0.449991
        47         2      1.928935      4.295589      0.449991
        48         2      1.377811      5.250164      0.449991
        49         2      3.031184      4.295589      0.449991
        50         2      2.480059      5.250164      0.449991
        51         2      4.133432      4.295589      0.449991
        52         2      3.582308      5.250164      0.449991
        53         2      5.235681      4.295589      0.449991
        54         2      4.684557      5.250164      0.449991
        55         2     -5.786805      4.295589      0.449991
        56         2      5.786805      5.250164      0.449991
        57         2     -4.684557      4.295589      0.449991
        58         2     -5.235681      5.250164      0.449991
        59         2     -3.582308      4.295589      0.449991
        60         2     -4.133432      5.250164      0.449991
        61         2     -2.480059      4.295589      0.449991
        62         2     -3.031184      5.250164      0.449991
        63         2     -1.377811      4.295589      0.449991
        64         2     -1.928935      5.250164      0.449991
        65         2     -0.275562      4.295589      0.449991
        66         2     -0.826686      5.250164      0.449991
        67         2      0.826686     -5.250164      0.449991
        68         2      0.275562     -4.295589      0.449991
        69         2      1.928935     -5.250164      0.449991
        70         2      1.377811     -4.295589      0.449991
        71         2      3.031184     -5.250164      0.449991
        72         2      2.480059     -4.295589      0.449991
        73         2      4.133432     -5.250164      0.449991
        74         2      3.582308     -4.295589      0.449991
        75         2      5.235681     -5.250164      0.449991
        76         2      4.684557     -4.295589      0.449991
        77         2     -5.786805     -5.250164      0.449991
        78         2      5.786805     -4.295589      0.449991
        79         2     -4.684557     -5.250164      0.449991
        80         2     -5.235681     -4.295589      0.449991
        81         2     -3.582308     -5.250164      0.449991
        82         2     -4.133432     -4.295589      0.449991
        83         2     -2.480059     -5.250164      0.449991
        84         2     -3.031184     -4.295589      0.449991
        85         2     -1.377811     -5.250164      0.449991
        86         2     -1.928935     -4.295589      0.449991
        87         2     -0.275562     -5.250164      0.449991
        88         2     -0.826686     -4.295589      0.449991
        89         2      0.826686     -3.341014      0.449991
        90         2      0.275562     -2.386438      0.449991
        91         2      1.928935     -3.341014      0.449991
        92         2      1.377811     -2.386438      0.449991
        93         2      3.031184     -3.341014      0.449991
        94         2      2.480059     -2.386438      0.449991
        95         2      4.133432     -3.341014      0.449991
        96         2      3.582308     -2.386438      0.449991
        97         2      5.235681     -3.341014      0.449991
        98         2      4.684557     -2.386438      0.449991
        99         2     -5.786805     -3.341014      0.449991
       100         2      5.786805     -2.386438      0.449991
       101         2     -4.684557     -3.341014      0.449991
       102         2     -5.235681     -2.386438      0.449991
       103         2     -3.582308     -3.341014      0.449991
       104         2     -4.133432     -2.386438      0.449991
       105         2     -2.480059     -3.341014      0.449991
       106         2     -3.031184     -2.386438      0.449991
       107         2     -1.377811     -3.341014      0.449991
       108         2     -1.928935     -2.386438      0.449991
       109         2     -0.275562     -3.341014      0.449991
       110         2     -0.826686     -2.386438      0.449991
       111         2      0.826686     -1.431863      0.449991
       112         2      0.275562     -0.477288      0.449991
       113         2      1.928935     -1.431863      0.449991
       114         2      1.377811     -0.477288      0.449991
       115         2      3.031184     -1.431863      0.449991
       116         2      2.480059     -0.477288      0.449991
       117         2      4.133432     -1.431863      0.449991
       118         2      3.582308     -0.477288      0.449991
       119         2      5.235681     -1.431863      0.449991
       120         2      4.684557     -0.477288      0.449991
       121         2     -5.786805     -1.431863      0.449991
       122         2      5.786805     -0.477288      0.449991
       123         2     -4.684557     -1.431863      0.449991
       124         2     -5.235681     -0.477288      0.449991
       125         2     -3.582308     -1.431863      0.449991
       126         2     -4.133432     -0.477288      0.449991
       127         2     -2.480059     -1.431863      0.449991
       128         2     -3.031184     -0.477288      0.449991
       129         2     -1.377811     -1.431863      0.449991
       130         2     -1.928935     -0.477288      0.449991
       131         2     -0.275562     -1.431863      0.449991
       132         2     -0.826686     -0.477288      0.449991
       133         1      0.275562      0.795479      1.349973
       134         1      0.826686      1.750055      1.349973
       135         1      1.377811      0.795479      1.349973
       136         1      1.928935      1.750055      1.349973
       137         1      2.480059      0.795479      1.349973
       138         1      3.031184      1.750055      1.349973
       139         1      3.582308      0.795479      1.349973
       140         1      4.133432      1.750055      1.349973
       141         1      4.684557      0.795479      1.349973
       142         1      5.235681      1.750055      1.349973
       143         1      5.786805      0.795479      1.349973
       144         1     -5.786805      1.750055      1.349973
       145         1     -5.235681      0.795479      1.349973
       146         1     -4.684557      1.750055      1.349973
       147         1     -4.133432      0.795479      1.349973
       148         1     -3.582308      1.750055      1.349973
       149         1     -3.031184      0.795479      1.349973
       150         1     -2.480059      1.750055      1.349973
       151         1     -1.928935      0.795479      1.349973
       152         1     -1.377811      1.750055      1.349973
       153         1     -0.826686      0.795479      1.349973
       154         1     -0.275562      1.750055      1.349973
       155         1      0.275562      2.704630      1.349973
       156         1      0.826686      3.659205      1.349973
       157         1      1.377811      2.704630      1.349973
       158         1      1.928935      3.659205      1.349973
       159         1      2.480059      2.704630      1.349973
       160         1      3.031184      3.659205      1.349973
       161         1      3.582308      2.704630      1.349973
       162         1      4.133432      3.659205      1.349973
       163         1      4.684557      2.704630      1.349973
       164         1      5.235681      3.659205      1.349973
       165         1      5.786805      2.704630      1.349973
       166         1     -5.786805      3.659205      1.349973
       167         1     -5.235681      2.704630      1.349973
       168         1     -4.684557      3.659205      1.349973
       169         1     -4.133432      2.704630      1.349973
       170         1     -3.582308      3.659205      1.349973
       171         1     -3.031184      2.704630      1.349973
       172         1     -2.480059      3.659205      1.349973
       173         1     -1.928935      2.704630      1.349973
       174         1     -1.377811      3.659205      1.349973
       175         1     -0.826686      2.704630      1.349973
       176         1     -0.275562      3.659205      1.349973
       177         1      0.275562      4.613781      1.349973
       178         1      0.826686      5.568356      1.349973
       179         1      1.377811      4.613781      1.349973
       180         1      1.928935      5.568356      1.349973
       181         1      2.480059      4.613781      1.349973
       182         1      3.031184      5.568356      1.349973
       183         1      3.582308      4.613781      1.349973
       184         1      4.133432      5.568356      1.349973
       185         1      4.684557      4.613781      1.349973
       186         1      5.235681      5.568356      1.349973
       187         1      5.786805      4.613781      1.349973
       188         1     -5.786805      5.568356      1.349973
       189         1     -5.235681      4.613781      1.349973
       190         1     -4.684557      5.568356      1.349973
       191         1     -4.133432      4.613781      1.349973
       192         1     -3.582308      5.568356      1.349973
       193         1     -3.031184      4.613781      1.349973
       194         1     -2.480059      5.568356      1.349973
       195         1     -1.928935      4.613781      1.349973
       196         1     -1.377811      5.568356      1.349973
       197         1     -0.826686      4.613781      1.349973
       198         1     -0.275562      5.568356      1.349973
       199         1      0.275562     -4.931973      1.349973
       200         1      0.826686     -3.977397      1.349973
       201         1      1.377811     -4.931973      1.349973
       202         1      1.928935     -3.977397      1.349973
       203         1      2.480059     -4.931973      1.349973
       204         1      3.031184     -3.977397      1.349973
       205         1      3.582308     -4.931973      1.349973
       206         1      4.133432     -3.977397      1.349973
       207         1      4.684557     -4.931973      1.349973
       208         1      5.235681     -3.977397      1.349973
       209         1      5.786805     -4.931973      1.349973
       210         1     -5.786805     -3.977397      1.349973
       211         1     -5.235681     -4.931973      1.349973
       212         1     -4.684557     -3.977397      1.349973
       213         1     -4.133432     -4.931973      1.349973
       214         1     -3.582308     -3.977397      1.349973
       215         1     -3.031184     -4.931973      1.349973
       216         1     -2.480059     -3.977397      1.349973
       217         1     -1.928935     -4.931973      1.349973
       218         1     -1.377811     -3.977397      1.349973
       219         1     -0.826686     -4.931973      1.349973
       220         1     -0.275562     -3.977397      1.349973
       221         1      0.275562     -3.022822      1.349973
       222         1      0.826686     -2.068247      1.349973
       223         1      1.377811     -3.022822      1.349973
       224         1      1.928935     -2.068247      1.349973
       225         1      2.480059     -3.022822      1.349973
       226         1      3.031184     -2.068247      1.349973
       227         1      3.582308     -3.022822      1.349973
       228         1      4.133432     -2.068247      1.349973
       229         1      4.684557     -3.022822      1.349973
       230         1      5.235681     -2.068247      1.349973
       231         1      5.786805     -3.022822      1.349973
       232         1     -5.786805     -2.068247      1.349973
       233         1     -5.235681     -3.022822      1.349973
       234         1     -4.684557     -2.068247      1.349973
       235         1     -4.133432     -3.022822      1.349973
       236         1     -3.582308     -2.068247      1.349973
       237         1     -3.031184     -3.022822      1.349973
       238         1     -2.480059     -2.068247      1.349973
       239         1     -1.928935     -3.022822      1.349973
       240         1     -1.377811     -2.068247      1.349973
       241         1     -0.826686     -3.022822      1.349973
       242         1     -0.275562     -2.068247      1.349973
       243         1      0.275562     -1.113671      1.349973
       244         1      0.826686     -0.159096      1.349973
       245         1      1.377811     -1.113671      1.349973
       246         1      1.928935     -0.159096      1.349973
       247         1      2.480059     -1.113671      1.349973
       248         1      3.031184     -0.159096      1.349973
       249         1      3.582308     -1.113671      1.349973
       250         1      4.133432     -0.159096      1.349973
       251         1      4.684557     -1.113671      1.349973
       252         1      5.235681     -0.159096      1.349973
       253         1      5.786805     -1.113671      1.349973
       254         1     -5.786805     -0.159096      1.349973
       255         1     -5.235681     -1.113671      1.349973
       256         1     -4.684557     -0.159096      1.349973
       257         1     -4.133432     -1.113671      1.349973
       258         1     -3.582308     -0.159096      1.349973
       259         1     -3.031184     -1.113671      1.349973
       260         1     -2.480059     -0.159096      1.349973
       261         1     -1.928935     -1.113671      1.349973
       262         1     -1.377811     -0.159096      1.349973
       263         1     -0.826686     -1.113671      1.349973
       264         1     -0.275562     -0.159096      1.349973
       265         1      0.275562      0.159096      2.249956
       266         1      0.826686      1.113671      2.249956
       267         1      1.377811      0.159096      2.249956
       268         1      1.928935      1.113671      2.249956
       269         1      2.480059      0.159096      2.249956
       270         1      3.031184      1.113671      2.249956
       271         1      3.582308      0.159096      2.249956
       272         1      4.133432      1.113671      2.249956
       273         1      4.684557      0.159096      2.249956
       274         1      5.235681      1.113671      2.249956
       275         1      5.786805      0.159096      2.249956
       276         1     -5.786805      1.113671      2.249956
       277         1     -5.235681      0.159096      2.249956
       278         1     -4.684557      1.113671      2.249956
       279         1     -4.133432      0.159096      2.249956
       280         1     -3.582308      1.113671      2.249956
       281         1     -3.031184      0.159096      2.249956
       282         1     -2.480059      1.113671      2.249956
       283         1     -1.928935      0.159096      2.249956
       284         1     -1.377811      1.113671      2.249956
       285         1     -0.826686      0.159096      2.249956
       286         1     -0.275562      1.113671      2.249956
       287         1      0.275562      2.068247      2.249956
       288         1      0.826686      3.022822      2.249956
       289         1      1.377811      2.068247      2.249956
       290         1      1.928935      3.022822      2.249956
       291         1      2.480059      2.068247      2.249956
       292         1      3.031184      3.022822      2.249956
       293         1      3.582308      2.068247      2.249956
       294         1      4.133432      3.022822      2.249956
       295         1      4.684557      2.068247      2.249956
       296         1      5.235681      3.022822      2.249956
       297         1      5.786805      2.068247      2.249956
       298         1     -5.786805      3.022822      2.249956
       299         1     -5.235681      2.068247      2.249956
       300         1     -4.684557      3.022822      2.249956
       301         1     -4.133432      2.068247      2.249956
       302         1     -3.582308      3.022822      2.249956
       303         1     -3.031184      2.068247      2.249956
       304         1     -2.480059      3.022822      2.249956
       305         1     -1.928935      2.068247      2.249956
       306         1     -1.377811      3.022822      2.249956
       307         1     -0.826686      2.068247      2.249956
       308         1     -0.275562      3.022822      2.249956
       309         1      0.275562      3.977397      2.249956
       310         1      0.826686      4.931973      2.249956
       311         1      1.377811      3.977397      2.249956
       312         1      1.928935      4.931973      2.249956
       313         1      2.480059      3.977397      2.249956
       314         1      3.031184      4.931973      2.249956
       315         1      3.582308      3.977397      2.249956
       316         1      4.133432      4.931973      2.249956
       317         1      4.684557      3.977397      2.249956
       318         1      5.235681      4.931973      2.249956
       319         1      5.786805      3.977397      2.249956
       320         1     -5.786805      4.931973      2.249956
       321         1     -5.235681      3.977397      2.249956
       322         1     -4.684557      4.931973      2.249956
       323         1     -4.133432      3.977397      2.249956
       324         1     -3.582308      4.931973      2.249956
       325         1     -3.031184      3.977397      2.249956
       326         1     -2.480059      4.931973      2.249956
       327         1     -1.928935      3.977397      2.249956
       328         1     -1.377811      4.931973      2.249956
       329         1     -0.826686      3.977397      2.249956
       330         1     -0.275562      4.931973      2.249956
       331         1      0.275562     -5.568356      2.249956
       332         1      0.826686     -4.613781      2.249956
       333         1      1.377811     -5.568356      2.249956
       334         1      1.928935     -4.613781      2.249956
       335         1      2.480059     -5.568356      2.249956
       336         1      3.031184     -4.613781      2.249956
       337         1      3.582308     -5.568356      2.249956
       338         1      4.133432     -4.613781      2.249956
       339         1      4.684557     -5.568356      2.249956
       340         1      5.235681     -4.613781      2.249956
       341         1      5.786805     -5.568356      2.249956
       342         1     -5.786805     -4.613781      2.249956
       343         1     -5.235681     -5.568356      2.249956
       344         1     -4.684557     -4.613781      2.249956
       345         1     -4.133432     -5.568356      2.249956
       346         1     -3.582308     -4.613781      2.249956
       347         1     -3.031184     -5.568356      2.249956
       348         1     -2.480059     -4.613781      2.249956
       349         1     -1.928935     -5.568356      2.249956
       350         1     -1.377811     -4.613781      2.249956
       351         1     -0.826686     -5.568356      2.249956
       352         1     -0.275562     -4.613781      2.249956
       353         1      0.275562     -3.659205      2.249956
       354         1      0.826686     -2.704630      2.249956
       355         1      1.377811     -3.659205      2.249956
       356         1      1.928935     -2.704630      2.249956
       357         1      2.480059     -3.659205      2.249956
       358         1      3.031184     -2.704630      2.249956
       359         1      3.582308     -3.659205      2.249956
       360         1      4.133432     -2.704630      2.249956
       361         1      4.684557     -3.659205      2.249956
       362         1      5.235681     -2.704630      2.249956
       363         1      5.786805     -3.659205      2.249956
       364         1     -5.786805     -2.704630      2.249956
       365         1     -5.235681     -3.659205      2.249956
       366         1     -4.684557     -2.704630      2.249956
       367         1     -4.133432     -3.659205      2.249956
       368         1     -3.582308     -2.704630      2.249956
       369         1     -3.031184     -3.659205      2.249956
       370         1     -2.480059     -2.704630      2.249956
       371         1     -1.928935     -3.659205      2.249956
       372         1     -1.377811     -2.704630      2.249956
       373         1     -0.826686     -3.659205      2.249956
       374         1     -0.275562     -2.704630      2.249956
       375         1      0.275562     -1.750055      2.249956
       376         1      0.826686     -0.795479      2.249956
       377         1      1.377811     -1.750055      2.249956
       378         1      1.928935     -0.795479      2.249956
       379         1      2.480059     -1.750055      2.249956
       380         1      3.031184     -0.795479      2.249956
       381         1      3.582308     -1.750055      2.249956
       382         1      4.133432     -0.795479      2.249956
       383         1      4.684557     -1.750055      2.249956
       384         1      5.235681     -0.795479      2.249956
       385         1      5.786805     -1.750055      2.249956
       386         1     -5.786805     -0.795479      2.249956
       387         1     -5.235681     -1.750055      2.249956
       388         1     -4.684557     -0.795479      2.249956
       389         1     -4.133432     -1.750055      2.249956
       390         1     -3.582308     -0.795479      2.249956
       391         1     -3.031184     -1.750055      2.249956
       392         1     -2.480059     -0.795479      2.249956
       393         1     -1.928935     -1.750055      2.249956
       394         1     -1.377811     -0.795479      2.249956
       395         1     -0.826686     -1.750055      2.249956
       396         1     -0.275562     -0.795479      2.249956
       397         1      0.826686      0.477288      3.149938
       398         1      0.275562      1.431863      3.149938
       399         1      1.928935      0.477288      3.149938
       400         1      1.377811      1.431863      3.149938
       401         1      3.031184      0.477288      3.149938
       402         1      2.480059      1.431863      3.149938
       403         1      4.133432      0.477288      3.149938
       404         1      3.582308      1.431863      3.149938
       405         1      5.235681      0.477288      3.149938
       406         1      4.684557      1.431863      3.149938
       407         1     -5.786805      0.477288      3.149938
       408         1      5.786805      1.431863      3.149938
       409         1     -4.684557      0.477288      3.149938
       410         1     -5.235681      1.431863      3.149938
       411         1     -3.582308      0.477288      3.149938
       412         1     -4.133432      1.431863      3.149938
       413         1     -2.480059      0.477288      3.149938
       414         1     -3.031184      1.431863      3.149938
       415         1     -1.377811      0.477288      3.149938
       416         1     -1.928935      1.431863      3.149938
       417         1     -0.275562      0.477288      3.149938
       418         1     -0.826686      1.431863      3.149938
       419         1      0.826686      2.386438      3.149938
       420         1      0.275562      3.341014      3.149938
       421         1      1.928935      2.386438      3.149938
       422         1      1.377811      3.341014      3.149938
       423         1      3.031184      2.386438      3.149938
       424         1      2.480059      3.341014      3.149938
       425         1      4.133432      2.386438      3.149938
       426         1      3.582308      3.341014      3.149938
       427         1      5.235681      2.386438      3.149938
       428         1      4.684557      3.341014      3.149938
       429         1     -5.786805      2.386438      3.149938
       430         1      5.786805      3.341014      3.149938
       431         1     -4.684557      2.386438      3.149938
       432         1     -5.235681      3.341014      3.149938
       433         1     -3.582308      2.386438      3.149938
       434         1     -4.133432      3.341014      3.149938
       435         1     -2.480059      2.386438      3.149938
       436         1     -3.031184      3.341014      3.149938
       437         1     -1.377811      2.386438      3.149938
       438         1     -1.928935      3.341014      3.149938
       439         1     -0.275562      2.386438      3.149938
       440         1     -0.826686      3.341014      3.149938
       441         1      0.826686      4.295589      3.149938
       442         1      0.275562      5.250164      3.149938
       443         1      1.928935      4.295589      3.149938
       444         1      1.377811      5.250164      3.149938
       445         1      3.031184      4.295589      3.149938
       446         1      2.480059      5.250164      3.149938
       447         1      4.133432      4.295589      3.149938
       448         1      3.582308      5.250164      3.149938
       449         1      5.235681      4.295589      3.149938
       450         1      4.684557      5.250164      3.149938
       451         1     -5.786805      4.295589      3.149938
       452         1      5.786805      5.250164      3.149938
       453         1     -4.684557      4.295589      3.149938
       454         1     -5.235681      5.250164      3.149938
       455         1     -3.582308      4.295589      3.149938
       456         1     -4.133432      5.250164      3.149938
       457         1     -2.480059      4.295589      3.149938
       458         1     -3.031184      5.250164      3.149938
       459         1     -1.377811      4.295589      3.149938
       460         1     -1.928935      5.250164      3.149938
       461         1     -0.275562      4.295589      3.149938
       462         1     -0.826686      5.250164      3.149938
       463         1      0.826686     -5.250164      3.149938
       464         1      0.275562     -4.295589      3.149938
       465         1      1.928935     -5.250164      3.149938
       466         1      1.377811     -4.295589      3.149938
       467         1      3.031184     -5.250164      3.149938
       468         1      2.480059     -4.295589      3.149938
       469         1      4.133432     -5.250164      3.149938
       470         1      3.582308     -4.295589      3.149938
       471         1      5.235681     -5.250164      3.149938