LAMMPS (2 Aug 2023)
###%****************************************************************************%
####%                                                                          *%
####%    Script for Step 1: LJ crystal in contact with vacuum                  *%
####%                             with Broughton-Gilmer potential              *%
####%                                                                          *%
####%***************************************************************************%
####%                                                                          *%
####%    Created by:                                                           *%
####%    Nicodemo Di Pasquale                                                  *%
####%    Department of Mathematics                                             *%
####%    University of Leicester                                               *%
####%    March 2018                                                            *%
####%                                                                          *%
####%***************************************************************************%

units		lj
atom_style	atomic

boundary p p p
read_data fcc111-T01.lmp
Reading data file ...
  orthogonal box = (0 0 0) to (5.5112433 5.7274521 16.199681)
  1 by 1 by 4 MPI processor grid
  reading atoms ...
  540 atoms
  reading velocities ...
  540 velocities
  read_data CPU = 0.005 seconds


mass * 1.0

# ---------------------------- Define variables --------------------------------

variable   wellsfile   string "fcc111-T01-wells.lmp" # Name of the wells file

variable   backloop    equal  0         # perform the backloop yes/no: 1/0
variable   rhoc        equal  1.05604   # density at which calculate the size of the unit cell
variable   fact        equal  1.2       # factor controlling extension wells interactopm
variable   dw          equal  6.0       # depth of the wells, taken as the pe per atom in liquid at triple point
variable   expp        equal  3.0       # power law exponent in wells potential shape
variable   eqnts       equal  0      # equilibration number of time-steps
variable   nts         equal  1000     # production number of time-steps
variable   ts          equal  0.005     # time-step size (in lj units)
variable   siglj       equal  1.0       # sigma coefficient for BG pair-style
variable   epslj       equal  1.0       # epsilon coefficient for BG pair-style
variable   cut1        equal  2.3       # internal cut-off for BG pair-style
variable   cut2        equal  2.5       # external cut-off for BG pair-style
variable   Tsyst       equal  0.1       # (reduced) temperature of the system
variable   NtsTdamp    equal  100       # Number of ts to damp temperature
variable   Nevery      equal  2       # use input values every this many time steps
variable   Nrepeat     equal  500         # # of times to use input values for calculating averages
variable   Nfreq       equal  1000       # calculate averages every this many time steps
variable   thermoSteps equal  1000      # # of time-steps before printing properties on screen

# ----- Derivate variables ------

variable  Tdamp    equal  ${NtsTdamp}*${ts}        # Value of Temperature damp
variable  Tdamp    equal  100*${ts}        
variable  Tdamp    equal  100*0.005        
variable  a0       equal  exp(1/3*ln(4/${rhoc}))   # size of the unit cell at the density rhoc
variable  a0       equal  exp(1/3*ln(4/1.05604))   
variable  rrw      equal  sqrt(2)*${a0}/4.0        # nearest neighbour fcc 111
variable  rrw      equal  sqrt(2)*1.55881008771231/4.0        
variable  rw       equal  ${rrw}*${fact}           # extension of the interaction of the wells with atoms
variable  rw       equal  0.551122591801686*${fact}           
variable  rw       equal  0.551122591801686*1.2           
variable  cutoff1  equal  ${siglj}*${cut1}         # internal cut-off for BG pair-style
variable  cutoff1  equal  1*${cut1}         
variable  cutoff1  equal  1*2.3         
variable  cutoff2  equal  ${siglj}*${cut2}         # external cut-off for BG pair-style
variable  cutoff2  equal  1*${cut2}         
variable  cutoff2  equal  1*2.5         

# ----------------------------- Interactions -----------------------------------

pair_style lj/BG ${cutoff1} ${cutoff2}
pair_style lj/BG 2.3 ${cutoff2}
pair_style lj/BG 2.3 2.5
pair_coeff   * *  ${epslj} ${siglj}
pair_coeff   * *  1 ${siglj}
pair_coeff   * *  1 1

neighbor     0.3 bin
neigh_modify every 1 delay 0 check yes
atom_modify  sort 0 0.0

# ------------------------- fix atoms  -------------------------------

velocity all zero linear
velocity all zero angular

# ------------- Output thermo information and averaged variables ---------------

thermo    ${thermoSteps}
thermo    1000
timestep  ${ts}
timestep  0.005

# --------------- Dumping trajectories and store restart file ------------------

#dump        Dp1 all xyz 20000 dump/dump.*.xyz
#restart   30000 X.restart/X.restart


# -------------------------- Zero linear momentum ------------------------------

fix    f3  all  momentum 1 linear 1 1 1

# -----------------------   Set sim   ----------------------------

fix f4 all  nvt temp ${Tsyst} ${Tsyst} ${Tdamp}
fix f4 all  nvt temp 0.1 ${Tsyst} ${Tdamp}
fix f4 all  nvt temp 0.1 0.1 ${Tdamp}
fix f4 all  nvt temp 0.1 0.1 0.5

# ----------------------- increasing interactions wells ------------------------

variable dir string "F"
variable   lam file lambda_wells.dat      # file with lambda in [0,1]
variable   i           equal  1           # initialization counter
variable   lambda      equal  ${lam}      # first value read from the file
variable   lambda      equal  0      

write_data fcc111.data nocoeff
System init for write_data ...
Generated 0 of 1 mixed pair_coeff terms from geometric mixing rule
Neighbor list info ...
  update: every = 1 steps, delay = 0 steps, check = yes
  max neighbors/atom: 2000, page size: 100000
  master list distance cutoff = 2.8
  ghost atom cutoff = 2.8
  binsize = 1.4, bins = 4 5 12
  1 neighbor lists, perpetual/occasional/extra = 1 0 0
  (1) pair lj/BG, perpetual
      attributes: half, newton on
      pair build: half/bin/atomonly/newton
      stencil: half/bin/3d
      bin: standard

label here
include    in.loop/loop
#*******************************************************************************#
#                                Wells loop                                     #
#*******************************************************************************#
#%       Created by:                                                           *%
#%            Nicodemo Di Pasquale                                             *%
#%            Department of Mathematics                                        *%
#%            University of Leicester                                          *%
#%            March 2018                                                       *%
#%******************************************************************************%


variable    lambda equal ${lam}
variable    lambda equal 0

fix f2 all wellPforce ${dw} ${rw} ${expp} ${lambda} file ${wellsfile}
fix f2 all wellPforce 6 ${rw} ${expp} ${lambda} file ${wellsfile}
fix f2 all wellPforce 6 0.661347110162023 ${expp} ${lambda} file ${wellsfile}
fix f2 all wellPforce 6 0.661347110162023 3 ${lambda} file ${wellsfile}
fix f2 all wellPforce 6 0.661347110162023 3 0 file ${wellsfile}
fix f2 all wellPforce 6 0.661347110162023 3 0 file fcc111-T01-wells.lmp

print       "Well depth ${lambda}"
Well depth 0
run   ${eqnts}
run   0
Generated 0 of 1 mixed pair_coeff terms from geometric mixing rule
Per MPI rank memory allocation (min/avg/max) = 2.978 | 2.982 | 2.987 Mbytes
   Step          Temp          E_pair         E_mol          TotEng         Press     
         0   0.099924464   -7.4462657      0             -7.2966565     -0.85634027   
Loop time of 1.36475e-06 on 4 procs for 0 steps with 540 atoms

91.6% CPU use with 4 MPI tasks x no OpenMP threads

MPI task timing breakdown:
Section |  min time  |  avg time  |  max time  |%varavg| %total
---------------------------------------------------------------
Pair    | 0          | 0          | 0          |   0.0 |  0.00
Neigh   | 0          | 0          | 0          |   0.0 |  0.00
Comm    | 0          | 0          | 0          |   0.0 |  0.00
Output  | 0          | 0          | 0          |   0.0 |  0.00
Modify  | 0          | 0          | 0          |   0.0 |  0.00
Other   |            | 1.365e-06  |            |       |100.00

Nlocal:            135 ave         150 max         120 min
Histogram: 2 0 0 0 0 0 0 0 0 2
Nghost:           1185 ave        1200 max        1170 min
Histogram: 2 0 0 0 0 0 0 0 0 2
Neighs:           5805 ave        6450 max        4872 min
Histogram: 1 0 0 1 0 0 0 0 0 2

Total # of neighbors = 23220
Ave neighs/atom = 43
Neighbor list builds = 0
Dangerous builds = 0

fix  f5 all ave/time ${Nevery} ${Nrepeat} ${Nfreq}  c_thermo_temp c_thermo_pe f_f2 v_lambda file  out/ave.${dir}.${i}.out
fix  f5 all ave/time 2 ${Nrepeat} ${Nfreq}  c_thermo_temp c_thermo_pe f_f2 v_lambda file  out/ave.${dir}.${i}.out
fix  f5 all ave/time 2 500 ${Nfreq}  c_thermo_temp c_thermo_pe f_f2 v_lambda file  out/ave.${dir}.${i}.out
fix  f5 all ave/time 2 500 1000  c_thermo_temp c_thermo_pe f_f2 v_lambda file  out/ave.${dir}.${i}.out
fix  f5 all ave/time 2 500 1000  c_thermo_temp c_thermo_pe f_f2 v_lambda file  out/ave.F.${i}.out
fix  f5 all ave/time 2 500 1000  c_thermo_temp c_thermo_pe f_f2 v_lambda file  out/ave.F.1.out

run  ${nts}
run  1000
Generated 0 of 1 mixed pair_coeff terms from geometric mixing rule
Per MPI rank memory allocation (min/avg/max) = 2.978 | 2.982 | 2.987 Mbytes
   Step          Temp          E_pair         E_mol          TotEng         Press     
         0   0.099924464   -7.4462657      0             -7.2966565     -0.85634027   
      1000   0.097990609   -7.3106344      0             -7.1639207     -0.068592292  
Loop time of 0.0921435 on 4 procs for 1000 steps with 540 atoms

Performance: 4688340.961 tau/day, 10852.641 timesteps/s, 5.860 Matom-step/s
99.8% CPU use with 4 MPI tasks x no OpenMP threads

MPI task timing breakdown:
Section |  min time  |  avg time  |  max time  |%varavg| %total
---------------------------------------------------------------
Pair    | 0.043112   | 0.052739   | 0.059573   |   3.0 | 57.24
Neigh   | 0          | 0          | 0          |   0.0 |  0.00
Comm    | 0.014506   | 0.021122   | 0.030571   |   4.6 | 22.92
Output  | 1.2959e-05 | 4.898e-05  | 6.1084e-05 |   0.0 |  0.05
Modify  | 0.016446   | 0.016598   | 0.016793   |   0.1 | 18.01
Other   |            | 0.001636   |            |       |  1.78

Nlocal:            135 ave         150 max         120 min
Histogram: 2 0 0 0 0 0 0 0 0 2
Nghost:           1185 ave        1200 max        1170 min
Histogram: 2 0 0 0 0 0 0 0 0 2
Neighs:           5805 ave        6450 max        4872 min
Histogram: 1 0 0 1 0 0 0 0 0 2

Total # of neighbors = 23220
Ave neighs/atom = 43
Neighbor list builds = 0
Dangerous builds = 0

# --------------------------- Unfix --------------------------------------------


unfix f5
unfix f2

#%*****************************************************************************%
variable    ii   equal ${i}+1
variable    ii   equal 1+1
variable    i    equal ${ii}
variable    i    equal 2
next lam
jump SELF here
include    in.loop/loop
#*******************************************************************************#
#                                Wells loop                                     #
#*******************************************************************************#
#%       Created by:                                                           *%
#%            Nicodemo Di Pasquale                                             *%
#%            Department of Mathematics                                        *%
#%            University of Leicester                                          *%
#%            March 2018                                                       *%
#%******************************************************************************%


variable    lambda equal ${lam}
variable    lambda equal 0.02

fix f2 all wellPforce ${dw} ${rw} ${expp} ${lambda} file ${wellsfile}
fix f2 all wellPforce 6 ${rw} ${expp} ${lambda} file ${wellsfile}
fix f2 all wellPforce 6 0.661347110162023 ${expp} ${lambda} file ${wellsfile}
fix f2 all wellPforce 6 0.661347110162023 3 ${lambda} file ${wellsfile}
fix f2 all wellPforce 6 0.661347110162023 3 0.02 file ${wellsfile}
fix f2 all wellPforce 6 0.661347110162023 3 0.02 file fcc111-T01-wells.lmp

print       "Well depth ${lambda}"
Well depth 0.02
run   ${eqnts}
run   0
Generated 0 of 1 mixed pair_coeff terms from geometric mixing rule
Per MPI rank memory allocation (min/avg/max) = 2.978 | 2.982 | 2.987 Mbytes
   Step          Temp          E_pair         E_mol          TotEng         Press     
      1000   0.097990609   -7.3106344      0             -7.1639207     -0.068592292  
Loop time of 1.12475e-06 on 4 procs for 0 steps with 540 atoms

88.9% CPU use with 4 MPI tasks x no OpenMP threads

MPI task timing breakdown:
Section |  min time  |  avg time  |  max time  |%varavg| %total
---------------------------------------------------------------
Pair    | 0          | 0          | 0          |   0.0 |  0.00
Neigh   | 0          | 0          | 0          |   0.0 |  0.00
Comm    | 0          | 0          | 0          |   0.0 |  0.00
Output  | 0          | 0          | 0          |   0.0 |  0.00
Modify  | 0          | 0          | 0          |   0.0 |  0.00
Other   |            | 1.125e-06  |            |       |100.00

Nlocal:            135 ave         137 max         133 min
Histogram: 1 0 1 0 0 0 0 1 0 1
Nghost:           1185 ave        1187 max        1183 min
Histogram: 1 0 1 0 0 0 0 1 0 1
Neighs:        5804.75 ave        5974 max        5564 min
Histogram: 1 0 0 0 1 0 0 0 0 2

Total # of neighbors = 23219
Ave neighs/atom = 42.998148
Neighbor list builds = 0
Dangerous builds = 0

fix  f5 all ave/time ${Nevery} ${Nrepeat} ${Nfreq}  c_thermo_temp c_thermo_pe f_f2 v_lambda file  out/ave.${dir}.${i}.out
fix  f5 all ave/time 2 ${Nrepeat} ${Nfreq}  c_thermo_temp c_thermo_pe f_f2 v_lambda file  out/ave.${dir}.${i}.out
fix  f5 all ave/time 2 500 ${Nfreq}  c_thermo_temp c_thermo_pe f_f2 v_lambda file  out/ave.${dir}.${i}.out
fix  f5 all ave/time 2 500 1000  c_thermo_temp c_thermo_pe f_f2 v_lambda file  out/ave.${dir}.${i}.out
fix  f5 all ave/time 2 500 1000  c_thermo_temp c_thermo_pe f_f2 v_lambda file  out/ave.F.${i}.out
fix  f5 all ave/time 2 500 1000  c_thermo_temp c_thermo_pe f_f2 v_lambda file  out/ave.F.2.out

run  ${nts}
run  1000
Generated 0 of 1 mixed pair_coeff terms from geometric mixing rule
Per MPI rank memory allocation (min/avg/max) = 2.978 | 2.982 | 2.987 Mbytes
   Step          Temp          E_pair         E_mol          TotEng         Press     
      1000   0.097990609   -7.3106344      0             -7.1639207     -0.068592292  
      2000   0.10243132    -7.2952126      0             -7.1418502      0.025144224  
Loop time of 0.0930628 on 4 procs for 1000 steps with 540 atoms

Performance: 4642027.086 tau/day, 10745.433 timesteps/s, 5.803 Matom-step/s
99.9% CPU use with 4 MPI tasks x no OpenMP threads

MPI task timing breakdown:
Section |  min time  |  avg time  |  max time  |%varavg| %total
---------------------------------------------------------------
Pair    | 0.051814   | 0.056149   | 0.059197   |   1.3 | 60.33
Neigh   | 0.0027093  | 0.0029528  | 0.0030871  |   0.3 |  3.17
Comm    | 0.013444   | 0.016941   | 0.021828   |   2.7 | 18.20
Output  | 1.3e-05    | 4.0531e-05 | 4.9792e-05 |   0.0 |  0.04
Modify  | 0.015144   | 0.015469   | 0.015731   |   0.2 | 16.62
Other   |            | 0.00151    |            |       |  1.62

Nlocal:            135 ave         136 max         134 min
Histogram: 2 0 0 0 0 0 0 0 0 2
Nghost:           1185 ave        1186 max        1184 min
Histogram: 2 0 0 0 0 0 0 0 0 2
Neighs:        5804.25 ave        5998 max        5640 min
Histogram: 1 1 0 0 0 0 1 0 0 1

Total # of neighbors = 23217
Ave neighs/atom = 42.994444
Neighbor list builds = 21
Dangerous builds = 0

# --------------------------- Unfix --------------------------------------------


unfix f5
unfix f2

#%*****************************************************************************%
variable    ii   equal ${i}+1
variable    ii   equal 2+1
variable    i    equal ${ii}
variable    i    equal 3
next lam
jump SELF here
include    in.loop/loop
#*******************************************************************************#
#                                Wells loop                                     #
#*******************************************************************************#
#%       Created by:                                                           *%
#%            Nicodemo Di Pasquale                                             *%
#%            Department of Mathematics                                        *%
#%            University of Leicester                                          *%
#%            March 2018                                                       *%
#%******************************************************************************%


variable    lambda equal ${lam}
variable    lambda equal 0.04

fix f2 all wellPforce ${dw} ${rw} ${expp} ${lambda} file ${wellsfile}
fix f2 all wellPforce 6 ${rw} ${expp} ${lambda} file ${wellsfile}
fix f2 all wellPforce 6 0.661347110162023 ${expp} ${lambda} file ${wellsfile}
fix f2 all wellPforce 6 0.661347110162023 3 ${lambda} file ${wellsfile}
fix f2 all wellPforce 6 0.661347110162023 3 0.04 file ${wellsfile}
fix f2 all wellPforce 6 0.661347110162023 3 0.04 file fcc111-T01-wells.lmp

print       "Well depth ${lambda}"
Well depth 0.04
run   ${eqnts}
run   0
Generated 0 of 1 mixed pair_coeff terms from geometric mixing rule
Per MPI rank memory allocation (min/avg/max) = 2.978 | 2.982 | 2.987 Mbytes
   Step          Temp          E_pair         E_mol          TotEng         Press     
      2000   0.10243132    -7.2952126      0             -7.1418502      0.025144224  
Loop time of 1.19825e-06 on 4 procs for 0 steps with 540 atoms

125.2% CPU use with 4 MPI tasks x no OpenMP threads

MPI task timing breakdown:
Section |  min time  |  avg time  |  max time  |%varavg| %total
---------------------------------------------------------------
Pair    | 0          | 0          | 0          |   0.0 |  0.00
Neigh   | 0          | 0          | 0          |   0.0 |  0.00
Comm    | 0          | 0          | 0          |   0.0 |  0.00
Output  | 0          | 0          | 0          |   0.0 |  0.00
Modify  | 0          | 0          | 0          |   0.0 |  0.00
Other   |            | 1.198e-06  |            |       |100.00

Nlocal:            135 ave         137 max         133 min
Histogram: 2 0 0 0 0 0 0 0 0 2
Nghost:           1185 ave        1187 max        1183 min
Histogram: 2 0 0 0 0 0 0 0 0 2
Neighs:        5804.75 ave        5996 max        5582 min
Histogram: 1 0 0 0 1 0 0 1 0 1

Total # of neighbors = 23219
Ave neighs/atom = 42.998148
Neighbor list builds = 0
Dangerous builds = 0

fix  f5 all ave/time ${Nevery} ${Nrepeat} ${Nfreq}  c_thermo_temp c_thermo_pe f_f2 v_lambda file  out/ave.${dir}.${i}.out
fix  f5 all ave/time 2 ${Nrepeat} ${Nfreq}  c_thermo_temp c_thermo_pe f_f2 v_lambda file  out/ave.${dir}.${i}.out
fix  f5 all ave/time 2 500 ${Nfreq}  c_thermo_temp c_thermo_pe f_f2 v_lambda file  out/ave.${dir}.${i}.out
fix  f5 all ave/time 2 500 1000  c_thermo_temp c_thermo_pe f_f2 v_lambda file  out/ave.${dir}.${i}.out
fix  f5 all ave/time 2 500 1000  c_thermo_temp c_thermo_pe f_f2 v_lambda file  out/ave.F.${i}.out
fix  f5 all ave/time 2 500 1000  c_thermo_temp c_thermo_pe f_f2 v_lambda file  out/ave.F.3.out

run  ${nts}
run  1000
Generated 0 of 1 mixed pair_coeff terms from geometric mixing rule
Per MPI rank memory allocation (min/avg/max) = 2.978 | 2.982 | 2.987 Mbytes
   Step          Temp          E_pair         E_mol          TotEng         Press     
      2000   0.10243132    -7.2952126      0             -7.1418502      0.025144224  
      3000   0.096445686   -7.2945225      0             -7.1501219      0.020404785  
Loop time of 0.0921611 on 4 procs for 1000 steps with 540 atoms

Performance: 4687442.780 tau/day, 10850.562 timesteps/s, 5.859 Matom-step/s
99.8% CPU use with 4 MPI tasks x no OpenMP threads

MPI task timing breakdown:
Section |  min time  |  avg time  |  max time  |%varavg| %total
---------------------------------------------------------------
Pair    | 0.053511   | 0.055822   | 0.058696   |   0.8 | 60.57
Neigh   | 0.0019889  | 0.0020997  | 0.0022133  |   0.2 |  2.28
Comm    | 0.014403   | 0.017239   | 0.01938    |   1.5 | 18.70
Output  | 1.1083e-05 | 3.1198e-05 | 3.8e-05    |   0.0 |  0.03
Modify  | 0.01534    | 0.015468   | 0.015744   |   0.1 | 16.78
Other   |            | 0.001502   |            |       |  1.63

Nlocal:            135 ave         138 max         132 min
Histogram: 1 1 0 0 0 0 0 0 1 1
Nghost:           1185 ave        1188 max        1182 min
Histogram: 1 1 0 0 0 0 0 0 1 1
Neighs:        5804.25 ave        6013 max        5494 min
Histogram: 1 0 0 0 0 0 1 1 0 1

Total # of neighbors = 23217
Ave neighs/atom = 42.994444
Neighbor list builds = 15
Dangerous builds = 0

# --------------------------- Unfix --------------------------------------------


unfix f5
unfix f2

#%*****************************************************************************%
variable    ii   equal ${i}+1
variable    ii   equal 3+1
variable    i    equal ${ii}
variable    i    equal 4
next lam
jump SELF here
include    in.loop/loop
#*******************************************************************************#
#                                Wells loop                                     #
#*******************************************************************************#
#%       Created by:                                                           *%
#%            Nicodemo Di Pasquale                                             *%
#%            Department of Mathematics                                        *%
#%            University of Leicester                                          *%
#%            March 2018                                                       *%
#%******************************************************************************%


variable    lambda equal ${lam}
variable    lambda equal 0.06

fix f2 all wellPforce ${dw} ${rw} ${expp} ${lambda} file ${wellsfile}
fix f2 all wellPforce 6 ${rw} ${expp} ${lambda} file ${wellsfile}
fix f2 all wellPforce 6 0.661347110162023 ${expp} ${lambda} file ${wellsfile}
fix f2 all wellPforce 6 0.661347110162023 3 ${lambda} file ${wellsfile}
fix f2 all wellPforce 6 0.661347110162023 3 0.06 file ${wellsfile}
fix f2 all wellPforce 6 0.661347110162023 3 0.06 file fcc111-T01-wells.lmp

print       "Well depth ${lambda}"
Well depth 0.06
run   ${eqnts}
run   0
Generated 0 of 1 mixed pair_coeff terms from geometric mixing rule
Per MPI rank memory allocation (min/avg/max) = 2.978 | 2.982 | 2.987 Mbytes
   Step          Temp          E_pair         E_mol          TotEng         Press     
      3000   0.096445686   -7.2945225      0             -7.1501219      0.020404785  
Loop time of 1.146e-06 on 4 procs for 0 steps with 540 atoms

87.3% CPU use with 4 MPI tasks x no OpenMP threads

MPI task timing breakdown:
Section |  min time  |  avg time  |  max time  |%varavg| %total
---------------------------------------------------------------
Pair    | 0          | 0          | 0          |   0.0 |  0.00
Neigh   | 0          | 0          | 0          |   0.0 |  0.00
Comm    | 0          | 0          | 0          |   0.0 |  0.00
Output  | 0          | 0          | 0          |   0.0 |  0.00
Modify  | 0          | 0          | 0          |   0.0 |  0.00
Other   |            | 1.146e-06  |            |       |100.00

Nlocal:            135 ave         138 max         132 min
Histogram: 1 1 0 0 0 0 0 0 1 1
Nghost:           1185 ave        1188 max        1182 min
Histogram: 1 1 0 0 0 0 0 0 1 1
Neighs:        5804.75 ave        6025 max        5572 min
Histogram: 1 0 0 1 0 0 0 1 0 1

Total # of neighbors = 23219
Ave neighs/atom = 42.998148
Neighbor list builds = 0
Dangerous builds = 0

fix  f5 all ave/time ${Nevery} ${Nrepeat} ${Nfreq}  c_thermo_temp c_thermo_pe f_f2 v_lambda file  out/ave.${dir}.${i}.out
fix  f5 all ave/time 2 ${Nrepeat} ${Nfreq}  c_thermo_temp c_thermo_pe f_f2 v_lambda file  out/ave.${dir}.${i}.out
fix  f5 all ave/time 2 500 ${Nfreq}  c_thermo_temp c_thermo_pe f_f2 v_lambda file  out/ave.${dir}.${i}.out
fix  f5 all ave/time 2 500 1000  c_thermo_temp c_thermo_pe f_f2 v_lambda file  out/ave.${dir}.${i}.out
fix  f5 all ave/time 2 500 1000  c_thermo_temp c_thermo_pe f_f2 v_lambda file  out/ave.F.${i}.out
fix  f5 all ave/time 2 500 1000  c_thermo_temp c_thermo_pe f_f2 v_lambda file  out/ave.F.4.out

run  ${nts}
run  1000
Generated 0 of 1 mixed pair_coeff terms from geometric mixing rule
Per MPI rank memory allocation (min/avg/max) = 2.978 | 2.982 | 2.987 Mbytes
   Step          Temp          E_pair         E_mol          TotEng         Press     
      3000   0.096445686   -7.2945225      0             -7.1501219      0.020404785  
      4000   0.099092905   -7.3020053      0             -7.1536412     -0.016013511  
Loop time of 0.0944982 on 4 procs for 1000 steps with 540 atoms

Performance: 4571516.761 tau/day, 10582.215 timesteps/s, 5.714 Matom-step/s
99.7% CPU use with 4 MPI tasks x no OpenMP threads

MPI task timing breakdown:
Section |  min time  |  avg time  |  max time  |%varavg| %total
---------------------------------------------------------------
Pair    | 0.054174   | 0.056446   | 0.059832   |   0.9 | 59.73
Neigh   | 0.0032373  | 0.0033932  | 0.0035824  |   0.2 |  3.59
Comm    | 0.014242   | 0.017569   | 0.019427   |   1.5 | 18.59
Output  | 8.75e-06   | 3.2312e-05 | 4.0333e-05 |   0.0 |  0.03
Modify  | 0.015122   | 0.015571   | 0.016149   |   0.3 | 16.48
Other   |            | 0.001487   |            |       |  1.57

Nlocal:            135 ave         137 max         133 min
Histogram: 1 0 1 0 0 0 0 1 0 1
Nghost:           1185 ave        1187 max        1183 min
Histogram: 1 0 1 0 0 0 0 1 0 1
Neighs:        5804.75 ave        5991 max        5564 min
Histogram: 1 0 0 0 1 0 0 1 0 1

Total # of neighbors = 23219
Ave neighs/atom = 42.998148
Neighbor list builds = 24
Dangerous builds = 0

# --------------------------- Unfix --------------------------------------------


unfix f5
unfix f2

#%*****************************************************************************%
variable    ii   equal ${i}+1
variable    ii   equal 4+1
variable    i    equal ${ii}
variable    i    equal 5
next lam
jump SELF here
include    in.loop/loop
#*******************************************************************************#
#                                Wells loop                                     #
#*******************************************************************************#
#%       Created by:                                                           *%
#%            Nicodemo Di Pasquale                                             *%
#%            Department of Mathematics                                        *%
#%            University of Leicester                                          *%
#%            March 2018                                                       *%
#%******************************************************************************%


variable    lambda equal ${lam}
variable    lambda equal 0.08

fix f2 all wellPforce ${dw} ${rw} ${expp} ${lambda} file ${wellsfile}
fix f2 all wellPforce 6 ${rw} ${expp} ${lambda} file ${wellsfile}
fix f2 all wellPforce 6 0.661347110162023 ${expp} ${lambda} file ${wellsfile}
fix f2 all wellPforce 6 0.661347110162023 3 ${lambda} file ${wellsfile}
fix f2 all wellPforce 6 0.661347110162023 3 0.08 file ${wellsfile}
fix f2 all wellPforce 6 0.661347110162023 3 0.08 file fcc111-T01-wells.lmp

print       "Well depth ${lambda}"
Well depth 0.08
run   ${eqnts}
run   0
Generated 0 of 1 mixed pair_coeff terms from geometric mixing rule
Per MPI rank memory allocation (min/avg/max) = 2.978 | 2.982 | 2.987 Mbytes
   Step          Temp          E_pair         E_mol          TotEng         Press     
      4000   0.099092905   -7.3020053      0             -7.1536412     -0.016013511  
Loop time of 8.9575e-07 on 4 procs for 0 steps with 540 atoms

83.7% CPU use with 4 MPI tasks x no OpenMP threads

MPI task timing breakdown:
Section |  min time  |  avg time  |  max time  |%varavg| %total
---------------------------------------------------------------
Pair    | 0          | 0          | 0          |   0.0 |  0.00
Neigh   | 0          | 0          | 0          |   0.0 |  0.00
Comm    | 0          | 0          | 0          |   0.0 |  0.00
Output  | 0          | 0          | 0          |   0.0 |  0.00
Modify  | 0          | 0          | 0          |   0.0 |  0.00
Other   |            | 8.957e-07  |            |       |100.00

Nlocal:            135 ave         138 max         132 min
Histogram: 1 1 0 0 0 0 0 0 1 1
Nghost:           1185 ave        1188 max        1182 min
Histogram: 1 1 0 0 0 0 0 0 1 1
Neighs:           5805 ave        6066 max        5569 min
Histogram: 1 0 0 1 0 1 0 0 0 1

Total # of neighbors = 23220
Ave neighs/atom = 43
Neighbor list builds = 0
Dangerous builds = 0

fix  f5 all ave/time ${Nevery} ${Nrepeat} ${Nfreq}  c_thermo_temp c_thermo_pe f_f2 v_lambda file  out/ave.${dir}.${i}.out
fix  f5 all ave/time 2 ${Nrepeat} ${Nfreq}  c_thermo_temp c_thermo_pe f_f2 v_lambda file  out/ave.${dir}.${i}.out
fix  f5 all ave/time 2 500 ${Nfreq}  c_thermo_temp c_thermo_pe f_f2 v_lambda file  out/ave.${dir}.${i}.out
fix  f5 all ave/time 2 500 1000  c_thermo_temp c_thermo_pe f_f2 v_lambda file  out/ave.${dir}.${i}.out
fix  f5 all ave/time 2 500 1000  c_thermo_temp c_thermo_pe f_f2 v_lambda file  out/ave.F.${i}.out
fix  f5 all ave/time 2 500 1000  c_thermo_temp c_thermo_pe f_f2 v_lambda file  out/ave.F.5.out

run  ${nts}
run  1000
Generated 0 of 1 mixed pair_coeff terms from geometric mixing rule
Per MPI rank memory allocation (min/avg/max) = 2.978 | 2.982 | 2.987 Mbytes
   Step          Temp          E_pair         E_mol          TotEng         Press     
      4000   0.099092905   -7.3020053      0             -7.1536412     -0.016013511  
      5000   0.096071456   -7.2995549      0             -7.1557146     -0.0079176706 
Loop time of 0.0908175 on 4 procs for 1000 steps with 540 atoms

Performance: 4756791.382 tau/day, 11011.091 timesteps/s, 5.946 Matom-step/s
99.8% CPU use with 4 MPI tasks x no OpenMP threads

MPI task timing breakdown:
Section |  min time  |  avg time  |  max time  |%varavg| %total
---------------------------------------------------------------
Pair    | 0.053835   | 0.055323   | 0.059198   |   1.0 | 60.92
Neigh   | 0.0013461  | 0.0014151  | 0.0015053  |   0.2 |  1.56
Comm    | 0.013753   | 0.017386   | 0.019301   |   1.6 | 19.14
Output  | 7.042e-06  | 2.5135e-05 | 3.1167e-05 |   0.0 |  0.03
Modify  | 0.014771   | 0.015209   | 0.015792   |   0.3 | 16.75
Other   |            | 0.00146    |            |       |  1.61

Nlocal:            135 ave         138 max         132 min
Histogram: 1 1 0 0 0 0 0 0 1 1
Nghost:           1185 ave        1188 max        1182 min
Histogram: 1 1 0 0 0 0 0 0 1 1
Neighs:        5804.75 ave        5988 max        5481 min
Histogram: 1 0 0 0 0 0 1 0 1 1

Total # of neighbors = 23219
Ave neighs/atom = 42.998148
Neighbor list builds = 10
Dangerous builds = 0

# --------------------------- Unfix --------------------------------------------


unfix f5
unfix f2

#%*****************************************************************************%
variable    ii   equal ${i}+1
variable    ii   equal 5+1
variable    i    equal ${ii}
variable    i    equal 6
next lam
jump SELF here
include    in.loop/loop
#*******************************************************************************#
#                                Wells loop                                     #
#*******************************************************************************#
#%       Created by:                                                           *%
#%            Nicodemo Di Pasquale                                             *%
#%            Department of Mathematics                                        *%
#%            University of Leicester                                          *%
#%            March 2018                                                       *%
#%******************************************************************************%


variable    lambda equal ${lam}
variable    lambda equal 0.1

fix f2 all wellPforce ${dw} ${rw} ${expp} ${lambda} file ${wellsfile}
fix f2 all wellPforce 6 ${rw} ${expp} ${lambda} file ${wellsfile}
fix f2 all wellPforce 6 0.661347110162023 ${expp} ${lambda} file ${wellsfile}
fix f2 all wellPforce 6 0.661347110162023 3 ${lambda} file ${wellsfile}
fix f2 all wellPforce 6 0.661347110162023 3 0.1 file ${wellsfile}
fix f2 all wellPforce 6 0.661347110162023 3 0.1 file fcc111-T01-wells.lmp

print       "Well depth ${lambda}"
Well depth 0.1
run   ${eqnts}
run   0
Generated 0 of 1 mixed pair_coeff terms from geometric mixing rule
Per MPI rank memory allocation (min/avg/max) = 2.978 | 2.982 | 2.987 Mbytes
   Step          Temp          E_pair         E_mol          TotEng         Press     
      5000   0.096071456   -7.2995549      0             -7.1557146     -0.0079176706 
Loop time of 9.3725e-07 on 4 procs for 0 steps with 540 atoms

106.7% CPU use with 4 MPI tasks x no OpenMP threads

MPI task timing breakdown:
Section |  min time  |  avg time  |  max time  |%varavg| %total
---------------------------------------------------------------
Pair    | 0          | 0          | 0          |   0.0 |  0.00
Neigh   | 0          | 0          | 0          |   0.0 |  0.00
Comm    | 0          | 0          | 0          |   0.0 |  0.00
Output  | 0          | 0          | 0          |   0.0 |  0.00
Modify  | 0          | 0          | 0          |   0.0 |  0.00
Other   |            | 9.372e-07  |            |       |100.00

Nlocal:            135 ave         139 max         131 min
Histogram: 1 0 0 1 0 0 1 0 0 1
Nghost:           1185 ave        1189 max        1181 min
Histogram: 1 0 0 1 0 0 1 0 0 1
Neighs:           5805 ave        5962 max        5441 min
Histogram: 1 0 0 0 0 0 0 0 1 2

Total # of neighbors = 23220
Ave neighs/atom = 43
Neighbor list builds = 0
Dangerous builds = 0

fix  f5 all ave/time ${Nevery} ${Nrepeat} ${Nfreq}  c_thermo_temp c_thermo_pe f_f2 v_lambda file  out/ave.${dir}.${i}.out
fix  f5 all ave/time 2 ${Nrepeat} ${Nfreq}  c_thermo_temp c_thermo_pe f_f2 v_lambda file  out/ave.${dir}.${i}.out
fix  f5 all ave/time 2 500 ${Nfreq}  c_thermo_temp c_thermo_pe f_f2 v_lambda file  out/ave.${dir}.${i}.out
fix  f5 all ave/time 2 500 1000  c_thermo_temp c_thermo_pe f_f2 v_lambda file  out/ave.${dir}.${i}.out
fix  f5 all ave/time 2 500 1000  c_thermo_temp c_thermo_pe f_f2 v_lambda file  out/ave.F.${i}.out
fix  f5 all ave/time 2 500 1000  c_thermo_temp c_thermo_pe f_f2 v_lambda file  out/ave.F.6.out

run  ${nts}
run  1000
Generated 0 of 1 mixed pair_coeff terms from geometric mixing rule
Per MPI rank memory allocation (min/avg/max) = 2.978 | 2.982 | 2.987 Mbytes
   Step          Temp          E_pair         E_mol          TotEng         Press     
      5000   0.096071456   -7.2995549      0             -7.1557146     -0.0079176706 
      6000   0.099952747   -7.2985752      0             -7.1489237      0.0024720175 
Loop time of 0.0899346 on 4 procs for 1000 steps with 540 atoms

Performance: 4803490.870 tau/day, 11119.192 timesteps/s, 6.004 Matom-step/s
99.8% CPU use with 4 MPI tasks x no OpenMP threads

MPI task timing breakdown:
Section |  min time  |  avg time  |  max time  |%varavg| %total
---------------------------------------------------------------
Pair    | 0.051429   | 0.055246   | 0.058076   |   1.1 | 61.43
Neigh   | 0.00079563 | 0.00084173 | 0.00087854 |   0.0 |  0.94
Comm    | 0.014211   | 0.016749   | 0.019929   |   1.7 | 18.62
Output  | 7.125e-06  | 2.7969e-05 | 3.4958e-05 |   0.0 |  0.03
Modify  | 0.015123   | 0.015595   | 0.016246   |   0.4 | 17.34
Other   |            | 0.001475   |            |       |  1.64

Nlocal:            135 ave         138 max         132 min
Histogram: 2 0 0 0 0 0 0 0 0 2
Nghost:           1185 ave        1188 max        1182 min
Histogram: 2 0 0 0 0 0 0 0 0 2
Neighs:           5805 ave        6079 max        5488 min
Histogram: 1 0 0 0 0 2 0 0 0 1

Total # of neighbors = 23220
Ave neighs/atom = 43
Neighbor list builds = 6
Dangerous builds = 0

# --------------------------- Unfix --------------------------------------------


unfix f5
unfix f2

#%*****************************************************************************%
variable    ii   equal ${i}+1
variable    ii   equal 6+1
variable    i    equal ${ii}
variable    i    equal 7
next lam
jump SELF here
include    in.loop/loop
#*******************************************************************************#
#                                Wells loop                                     #
#*******************************************************************************#
#%       Created by:                                                           *%
#%            Nicodemo Di Pasquale                                             *%
#%            Department of Mathematics                                        *%
#%            University of Leicester                                          *%
#%            March 2018                                                       *%
#%******************************************************************************%


variable    lambda equal ${lam}
variable    lambda equal 0.12

fix f2 all wellPforce ${dw} ${rw} ${expp} ${lambda} file ${wellsfile}
fix f2 all wellPforce 6 ${rw} ${expp} ${lambda} file ${wellsfile}
fix f2 all wellPforce 6 0.661347110162023 ${expp} ${lambda} file ${wellsfile}
fix f2 all wellPforce 6 0.661347110162023 3 ${lambda} file ${wellsfile}
fix f2 all wellPforce 6 0.661347110162023 3 0.12 file ${wellsfile}
fix f2 all wellPforce 6 0.661347110162023 3 0.12 file fcc111-T01-wells.lmp

print       "Well depth ${lambda}"
Well depth 0.12
run   ${eqnts}
run   0
Generated 0 of 1 mixed pair_coeff terms from geometric mixing rule
Per MPI rank memory allocation (min/avg/max) = 2.978 | 2.982 | 2.987 Mbytes
   Step          Temp          E_pair         E_mol          TotEng         Press     
      6000   0.099952747   -7.2985752      0             -7.1489237      0.0024720175 
Loop time of 9.5825e-07 on 4 procs for 0 steps with 540 atoms

104.4% CPU use with 4 MPI tasks x no OpenMP threads

MPI task timing breakdown:
Section |  min time  |  avg time  |  max time  |%varavg| %total
---------------------------------------------------------------
Pair    | 0          | 0          | 0          |   0.0 |  0.00
Neigh   | 0          | 0          | 0          |   0.0 |  0.00
Comm    | 0          | 0          | 0          |   0.0 |  0.00
Output  | 0          | 0          | 0          |   0.0 |  0.00
Modify  | 0          | 0          | 0          |   0.0 |  0.00
Other   |            | 9.583e-07  |            |       |100.00

Nlocal:            135 ave         140 max         130 min
Histogram: 1 0 1 0 0 0 0 0 1 1
Nghost:           1185 ave        1190 max        1180 min
Histogram: 1 0 1 0 0 0 0 0 1 1
Neighs:           5805 ave        6139 max        5487 min
Histogram: 1 0 0 0 1 1 0 0 0 1

Total # of neighbors = 23220
Ave neighs/atom = 43
Neighbor list builds = 0
Dangerous builds = 0

fix  f5 all ave/time ${Nevery} ${Nrepeat} ${Nfreq}  c_thermo_temp c_thermo_pe f_f2 v_lambda file  out/ave.${dir}.${i}.out
fix  f5 all ave/time 2 ${Nrepeat} ${Nfreq}  c_thermo_temp c_thermo_pe f_f2 v_lambda file  out/ave.${dir}.${i}.out
fix  f5 all ave/time 2 500 ${Nfreq}  c_thermo_temp c_thermo_pe f_f2 v_lambda file  out/ave.${dir}.${i}.out
fix  f5 all ave/time 2 500 1000  c_thermo_temp c_thermo_pe f_f2 v_lambda file  out/ave.${dir}.${i}.out
fix  f5 all ave/time 2 500 1000  c_thermo_temp c_thermo_pe f_f2 v_lambda file  out/ave.F.${i}.out
fix  f5 all ave/time 2 500 1000  c_thermo_temp c_thermo_pe f_f2 v_lambda file  out/ave.F.7.out

run  ${nts}
run  1000
Generated 0 of 1 mixed pair_coeff terms from geometric mixing rule
Per MPI rank memory allocation (min/avg/max) = 2.978 | 2.982 | 2.987 Mbytes
   Step          Temp          E_pair         E_mol          TotEng         Press     
      6000   0.099952747   -7.2985752      0             -7.1489237      0.0024720175 
      7000   0.097879334   -7.2866969      0             -7.1401498      0.068302287  
Loop time of 0.0909241 on 4 procs for 1000 steps with 540 atoms

Performance: 4751214.281 tau/day, 10998.181 timesteps/s, 5.939 Matom-step/s
99.8% CPU use with 4 MPI tasks x no OpenMP threads

MPI task timing breakdown:
Section |  min time  |  avg time  |  max time  |%varavg| %total
---------------------------------------------------------------
Pair    | 0.053399   | 0.055333   | 0.059282   |   1.0 | 60.86
Neigh   | 0.0010784  | 0.0011259  | 0.0011854  |   0.1 |  1.24
Comm    | 0.013968   | 0.017652   | 0.019575   |   1.7 | 19.41
Output  | 6.75e-06   | 2.6771e-05 | 3.3542e-05 |   0.0 |  0.03
Modify  | 0.014864   | 0.015324   | 0.015924   |   0.3 | 16.85
Other   |            | 0.001463   |            |       |  1.61

Nlocal:            135 ave         137 max         133 min
Histogram: 1 0 0 0 0 2 0 0 0 1
Nghost:           1185 ave        1187 max        1183 min
Histogram: 1 0 0 0 0 2 0 0 0 1
Neighs:        5804.75 ave        6015 max        5668 min
Histogram: 2 0 0 0 0 1 0 0 0 1

Total # of neighbors = 23219
Ave neighs/atom = 42.998148
Neighbor list builds = 8
Dangerous builds = 0

# --------------------------- Unfix --------------------------------------------


unfix f5
unfix f2

#%*****************************************************************************%
variable    ii   equal ${i}+1
variable    ii   equal 7+1
variable    i    equal ${ii}
variable    i    equal 8
next lam
jump SELF here
include    in.loop/loop
#*******************************************************************************#
#                                Wells loop                                     #
#*******************************************************************************#
#%       Created by:                                                           *%
#%            Nicodemo Di Pasquale                                             *%
#%            Department of Mathematics                                        *%
#%            University of Leicester                                          *%
#%            March 2018                                                       *%
#%******************************************************************************%


variable    lambda equal ${lam}
variable    lambda equal 0.14

fix f2 all wellPforce ${dw} ${rw} ${expp} ${lambda} file ${wellsfile}
fix f2 all wellPforce 6 ${rw} ${expp} ${lambda} file ${wellsfile}
fix f2 all wellPforce 6 0.661347110162023 ${expp} ${lambda} file ${wellsfile}
fix f2 all wellPforce 6 0.661347110162023 3 ${lambda} file ${wellsfile}
fix f2 all wellPforce 6 0.661347110162023 3 0.14 file ${wellsfile}
fix f2 all wellPforce 6 0.661347110162023 3 0.14 file fcc111-T01-wells.lmp

print       "Well depth ${lambda}"
Well depth 0.14
run   ${eqnts}
run   0
Generated 0 of 1 mixed pair_coeff terms from geometric mixing rule
Per MPI rank memory allocation (min/avg/max) = 2.978 | 2.982 | 2.987 Mbytes
   Step          Temp          E_pair         E_mol          TotEng         Press     
      7000   0.097879334   -7.2866969      0             -7.1401498      0.068302287  
Loop time of 1.07275e-06 on 4 procs for 0 steps with 540 atoms

69.9% CPU use with 4 MPI tasks x no OpenMP threads

MPI task timing breakdown:
Section |  min time  |  avg time  |  max time  |%varavg| %total
---------------------------------------------------------------
Pair    | 0          | 0          | 0          |   0.0 |  0.00
Neigh   | 0          | 0          | 0          |   0.0 |  0.00
Comm    | 0          | 0          | 0          |   0.0 |  0.00
Output  | 0          | 0          | 0          |   0.0 |  0.00
Modify  | 0          | 0          | 0          |   0.0 |  0.00
Other   |            | 1.073e-06  |            |       |100.00

Nlocal:            135 ave         138 max         132 min
Histogram: 1 0 0 1 0 0 1 0 0 1
Nghost:           1185 ave        1188 max        1182 min
Histogram: 1 0 0 1 0 0 1 0 0 1
Neighs:        5805.25 ave        6019 max        5616 min
Histogram: 1 0 1 0 0 1 0 0 0 1

Total # of neighbors = 23221
Ave neighs/atom = 43.001852
Neighbor list builds = 0
Dangerous builds = 0

fix  f5 all ave/time ${Nevery} ${Nrepeat} ${Nfreq}  c_thermo_temp c_thermo_pe f_f2 v_lambda file  out/ave.${dir}.${i}.out
fix  f5 all ave/time 2 ${Nrepeat} ${Nfreq}  c_thermo_temp c_thermo_pe f_f2 v_lambda file  out/ave.${dir}.${i}.out
fix  f5 all ave/time 2 500 ${Nfreq}  c_thermo_temp c_thermo_pe f_f2 v_lambda file  out/ave.${dir}.${i}.out
fix  f5 all ave/time 2 500 1000  c_thermo_temp c_thermo_pe f_f2 v_lambda file  out/ave.${dir}.${i}.out
fix  f5 all ave/time 2 500 1000  c_thermo_temp c_thermo_pe f_f2 v_lambda file  out/ave.F.${i}.out
fix  f5 all ave/time 2 500 1000  c_thermo_temp c_thermo_pe f_f2 v_lambda file  out/ave.F.8.out

run  ${nts}
run  1000
Generated 0 of 1 mixed pair_coeff terms from geometric mixing rule
Per MPI rank memory allocation (min/avg/max) = 2.978 | 2.982 | 2.987 Mbytes
   Step          Temp          E_pair         E_mol          TotEng         Press     
      7000   0.097879334   -7.2866969      0             -7.1401498      0.068302287  
      8000   0.098100646   -7.2956633      0             -7.1487849      0.015843409  
Loop time of 0.0929322 on 4 procs for 1000 steps with 540 atoms

Performance: 4648549.808 tau/day, 10760.532 timesteps/s, 5.811 Matom-step/s
99.8% CPU use with 4 MPI tasks x no OpenMP threads

MPI task timing breakdown:
Section |  min time  |  avg time  |  max time  |%varavg| %total
---------------------------------------------------------------
Pair    | 0.05312    | 0.055786   | 0.059661   |   1.1 | 60.03
Neigh   | 0.0019381  | 0.0021291  | 0.002236   |   0.2 |  2.29
Comm    | 0.013962   | 0.017803   | 0.020753   |   2.0 | 19.16
Output  | 8.375e-06  | 3.1521e-05 | 3.9375e-05 |   0.0 |  0.03
Modify  | 0.015568   | 0.015681   | 0.015864   |   0.1 | 16.87
Other   |            | 0.001502   |            |       |  1.62

Nlocal:            135 ave         140 max         130 min
Histogram: 1 0 0 1 0 0 0 1 0 1
Nghost:           1185 ave        1190 max        1180 min
Histogram: 1 0 0 1 0 0 0 1 0 1
Neighs:         5804.5 ave        6043 max        5372 min
Histogram: 1 0 0 0 0 0 0 1 1 1

Total # of neighbors = 23218
Ave neighs/atom = 42.996296
Neighbor list builds = 15
Dangerous builds = 0

# --------------------------- Unfix --------------------------------------------


unfix f5
unfix f2

#%*****************************************************************************%
variable    ii   equal ${i}+1
variable    ii   equal 8+1
variable    i    equal ${ii}
variable    i    equal 9
next lam
jump SELF here
include    in.loop/loop
#*******************************************************************************#
#                                Wells loop                                     #
#*******************************************************************************#
#%       Created by:                                                           *%
#%            Nicodemo Di Pasquale                                             *%
#%            Department of Mathematics                                        *%
#%            University of Leicester                                          *%
#%            March 2018                                                       *%
#%******************************************************************************%


variable    lambda equal ${lam}
variable    lambda equal 0.16

fix f2 all wellPforce ${dw} ${rw} ${expp} ${lambda} file ${wellsfile}
fix f2 all wellPforce 6 ${rw} ${expp} ${lambda} file ${wellsfile}
fix f2 all wellPforce 6 0.661347110162023 ${expp} ${lambda} file ${wellsfile}
fix f2 all wellPforce 6 0.661347110162023 3 ${lambda} file ${wellsfile}
fix f2 all wellPforce 6 0.661347110162023 3 0.16 file ${wellsfile}
fix f2 all wellPforce 6 0.661347110162023 3 0.16 file fcc111-T01-wells.lmp

print       "Well depth ${lambda}"
Well depth 0.16
run   ${eqnts}
run   0
Generated 0 of 1 mixed pair_coeff terms from geometric mixing rule
Per MPI rank memory allocation (min/avg/max) = 2.978 | 2.982 | 2.987 Mbytes
   Step          Temp          E_pair         E_mol          TotEng         Press     
      8000   0.098100646   -7.2956633      0             -7.1487849      0.015843409  
Loop time of 9.065e-07 on 4 procs for 0 steps with 540 atoms

82.7% CPU use with 4 MPI tasks x no OpenMP threads

MPI task timing breakdown:
Section |  min time  |  avg time  |  max time  |%varavg| %total
---------------------------------------------------------------
Pair    | 0          | 0          | 0          |   0.0 |  0.00
Neigh   | 0          | 0          | 0          |   0.0 |  0.00
Comm    | 0          | 0          | 0          |   0.0 |  0.00
Output  | 0          | 0          | 0          |   0.0 |  0.00
Modify  | 0          | 0          | 0          |   0.0 |  0.00
Other   |            | 9.065e-07  |            |       |100.00

Nlocal:            135 ave         138 max         132 min
Histogram: 1 0 0 0 0 2 0 0 0 1
Nghost:           1185 ave        1188 max        1182 min
Histogram: 1 0 0 0 0 2 0 0 0 1
Neighs:        5805.25 ave        6080 max        5649 min
Histogram: 2 0 0 0 1 0 0 0 0 1

Total # of neighbors = 23221
Ave neighs/atom = 43.001852
Neighbor list builds = 0
Dangerous builds = 0

fix  f5 all ave/time ${Nevery} ${Nrepeat} ${Nfreq}  c_thermo_temp c_thermo_pe f_f2 v_lambda file  out/ave.${dir}.${i}.out
fix  f5 all ave/time 2 ${Nrepeat} ${Nfreq}  c_thermo_temp c_thermo_pe f_f2 v_lambda file  out/ave.${dir}.${i}.out
fix  f5 all ave/time 2 500 ${Nfreq}  c_thermo_temp c_thermo_pe f_f2 v_lambda file  out/ave.${dir}.${i}.out
fix  f5 all ave/time 2 500 1000  c_thermo_temp c_thermo_pe f_f2 v_lambda file  out/ave.${dir}.${i}.out
fix  f5 all ave/time 2 500 1000  c_thermo_temp c_thermo_pe f_f2 v_lambda file  out/ave.F.${i}.out
fix  f5 all ave/time 2 500 1000  c_thermo_temp c_thermo_pe f_f2 v_lambda file  out/ave.F.9.out

run  ${nts}
run  1000
Generated 0 of 1 mixed pair_coeff terms from geometric mixing rule
Per MPI rank memory allocation (min/avg/max) = 2.978 | 2.982 | 2.987 Mbytes
   Step          Temp          E_pair         E_mol          TotEng         Press     
      8000   0.098100646   -7.2956633      0             -7.1487849      0.015843409  
      9000   0.10277011    -7.3024294      0             -7.1485597     -0.018026178  
Loop time of 0.0898205 on 4 procs for 1000 steps with 540 atoms

Performance: 4809590.243 tau/day, 11133.311 timesteps/s, 6.012 Matom-step/s
99.9% CPU use with 4 MPI tasks x no OpenMP threads

MPI task timing breakdown:
Section |  min time  |  avg time  |  max time  |%varavg| %total
---------------------------------------------------------------
Pair    | 0.053373   | 0.055349   | 0.057792   |   0.8 | 61.62
Neigh   | 0.0011085  | 0.0011339  | 0.0011754  |   0.1 |  1.26
Comm    | 0.013975   | 0.016745   | 0.019107   |   1.6 | 18.64
Output  | 7.916e-06  | 2.3438e-05 | 2.8667e-05 |   0.0 |  0.03
Modify  | 0.014698   | 0.015083   | 0.015542   |   0.3 | 16.79
Other   |            | 0.001486   |            |       |  1.65

Nlocal:            135 ave         140 max         130 min
Histogram: 1 0 0 1 0 0 0 1 0 1
Nghost:           1185 ave        1190 max        1180 min
Histogram: 1 0 0 1 0 0 0 1 0 1
Neighs:        5805.25 ave        6035 max        5406 min
Histogram: 1 0 0 0 0 0 0 1 1 1

Total # of neighbors = 23221
Ave neighs/atom = 43.001852
Neighbor list builds = 8
Dangerous builds = 0

# --------------------------- Unfix --------------------------------------------


unfix f5
unfix f2

#%*****************************************************************************%
variable    ii   equal ${i}+1
variable    ii   equal 9+1
variable    i    equal ${ii}
variable    i    equal 10
next lam
jump SELF here
include    in.loop/loop
#*******************************************************************************#
#                                Wells loop                                     #
#*******************************************************************************#
#%       Created by:                                                           *%
#%            Nicodemo Di Pasquale                                             *%
#%            Department of Mathematics                                        *%
#%            University of Leicester                                          *%
#%            March 2018                                                       *%
#%******************************************************************************%


variable    lambda equal ${lam}
variable    lambda equal 0.18

fix f2 all wellPforce ${dw} ${rw} ${expp} ${lambda} file ${wellsfile}
fix f2 all wellPforce 6 ${rw} ${expp} ${lambda} file ${wellsfile}
fix f2 all wellPforce 6 0.661347110162023 ${expp} ${lambda} file ${wellsfile}
fix f2 all wellPforce 6 0.661347110162023 3 ${lambda} file ${wellsfile}
fix f2 all wellPforce 6 0.661347110162023 3 0.18 file ${wellsfile}
fix f2 all wellPforce 6 0.661347110162023 3 0.18 file fcc111-T01-wells.lmp

print       "Well depth ${lambda}"
Well depth 0.18
run   ${eqnts}
run   0
Generated 0 of 1 mixed pair_coeff terms from geometric mixing rule
Per MPI rank memory allocation (min/avg/max) = 2.978 | 2.982 | 2.987 Mbytes
   Step          Temp          E_pair         E_mol          TotEng         Press     
      9000   0.10277011    -7.3024294      0             -7.1485597     -0.018026178  
Loop time of 1.06275e-06 on 4 procs for 0 steps with 540 atoms

70.6% CPU use with 4 MPI tasks x no OpenMP threads

MPI task timing breakdown:
Section |  min time  |  avg time  |  max time  |%varavg| %total
---------------------------------------------------------------
Pair    | 0          | 0          | 0          |   0.0 |  0.00
Neigh   | 0          | 0          | 0          |   0.0 |  0.00
Comm    | 0          | 0          | 0          |   0.0 |  0.00
Output  | 0          | 0          | 0          |   0.0 |  0.00
Modify  | 0          | 0          | 0          |   0.0 |  0.00
Other   |            | 1.063e-06  |            |       |100.00

Nlocal:            135 ave         141 max         129 min
Histogram: 1 0 0 0 1 1 0 0 0 1
Nghost:           1185 ave        1191 max        1179 min
Histogram: 1 0 0 0 1 1 0 0 0 1
Neighs:           5805 ave        5988 max        5336 min
Histogram: 1 0 0 0 0 0 0 0 1 2

Total # of neighbors = 23220
Ave neighs/atom = 43
Neighbor list builds = 0
Dangerous builds = 0

fix  f5 all ave/time ${Nevery} ${Nrepeat} ${Nfreq}  c_thermo_temp c_thermo_pe f_f2 v_lambda file  out/ave.${dir}.${i}.out
fix  f5 all ave/time 2 ${Nrepeat} ${Nfreq}  c_thermo_temp c_thermo_pe f_f2 v_lambda file  out/ave.${dir}.${i}.out
fix  f5 all ave/time 2 500 ${Nfreq}  c_thermo_temp c_thermo_pe f_f2 v_lambda file  out/ave.${dir}.${i}.out
fix  f5 all ave/time 2 500 1000  c_thermo_temp c_thermo_pe f_f2 v_lambda file  out/ave.${dir}.${i}.out
fix  f5 all ave/time 2 500 1000  c_thermo_temp c_thermo_pe f_f2 v_lambda file  out/ave.F.${i}.out
fix  f5 all ave/time 2 500 1000  c_thermo_temp c_thermo_pe f_f2 v_lambda file  out/ave.F.10.out

run  ${nts}
run  1000
Generated 0 of 1 mixed pair_coeff terms from geometric mixing rule
Per MPI rank memory allocation (min/avg/max) = 2.978 | 2.982 | 2.987 Mbytes
   Step          Temp          E_pair         E_mol          TotEng         Press     
      9000   0.10277011    -7.3024294      0             -7.1485597     -0.018026178  
     10000   0.099005515   -7.2982833      0             -7.1500501      0.00050140912
Loop time of 0.0910302 on 4 procs for 1000 steps with 540 atoms

Performance: 4745678.460 tau/day, 10985.367 timesteps/s, 5.932 Matom-step/s
99.8% CPU use with 4 MPI tasks x no OpenMP threads

MPI task timing breakdown:
Section |  min time  |  avg time  |  max time  |%varavg| %total
---------------------------------------------------------------
Pair    | 0.054657   | 0.055853   | 0.057209   |   0.5 | 61.36
Neigh   | 0.0017924  | 0.0018459  | 0.0019064  |   0.1 |  2.03
Comm    | 0.015606   | 0.016654   | 0.017507   |   0.6 | 18.30
Output  | 7.375e-06  | 2.9156e-05 | 3.6459e-05 |   0.0 |  0.03
Modify  | 0.01482    | 0.01516    | 0.015519   |   0.3 | 16.65
Other   |            | 0.001487   |            |       |  1.63

Nlocal:            135 ave         139 max         131 min
Histogram: 2 0 0 0 0 0 0 0 0 2
Nghost:           1185 ave        1189 max        1181 min
Histogram: 2 0 0 0 0 0 0 0 0 2
Neighs:           5805 ave        6076 max        5451 min
Histogram: 1 0 0 0 0 0 2 0 0 1

Total # of neighbors = 23220
Ave neighs/atom = 43
Neighbor list builds = 13
Dangerous builds = 0

# --------------------------- Unfix --------------------------------------------


unfix f5
unfix f2

#%*****************************************************************************%
variable    ii   equal ${i}+1
variable    ii   equal 10+1
variable    i    equal ${ii}
variable    i    equal 11
next lam
jump SELF here
include    in.loop/loop
#*******************************************************************************#
#                                Wells loop                                     #
#*******************************************************************************#
#%       Created by:                                                           *%
#%            Nicodemo Di Pasquale                                             *%
#%            Department of Mathematics                                        *%
#%            University of Leicester                                          *%
#%            March 2018                                                       *%
#%******************************************************************************%


variable    lambda equal ${lam}
variable    lambda equal 0.2

fix f2 all wellPforce ${dw} ${rw} ${expp} ${lambda} file ${wellsfile}
fix f2 all wellPforce 6 ${rw} ${expp} ${lambda} file ${wellsfile}
fix f2 all wellPforce 6 0.661347110162023 ${expp} ${lambda} file ${wellsfile}
fix f2 all wellPforce 6 0.661347110162023 3 ${lambda} file ${wellsfile}
fix f2 all wellPforce 6 0.661347110162023 3 0.2 file ${wellsfile}
fix f2 all wellPforce 6 0.661347110162023 3 0.2 file fcc111-T01-wells.lmp

print       "Well depth ${lambda}"
Well depth 0.2
run   ${eqnts}
run   0
Generated 0 of 1 mixed pair_coeff terms from geometric mixing rule
Per MPI rank memory allocation (min/avg/max) = 2.978 | 2.982 | 2.987 Mbytes
   Step          Temp          E_pair         E_mol          TotEng         Press     
     10000   0.099005515   -7.2982833      0             -7.1500501      0.00050140912
Loop time of 1.06225e-06 on 4 procs for 0 steps with 540 atoms

94.1% CPU use with 4 MPI tasks x no OpenMP threads

MPI task timing breakdown:
Section |  min time  |  avg time  |  max time  |%varavg| %total
---------------------------------------------------------------
Pair    | 0          | 0          | 0          |   0.0 |  0.00
Neigh   | 0          | 0          | 0          |   0.0 |  0.00
Comm    | 0          | 0          | 0          |   0.0 |  0.00
Output  | 0          | 0          | 0          |   0.0 |  0.00
Modify  | 0          | 0          | 0          |   0.0 |  0.00
Other   |            | 1.062e-06  |            |       |100.00

Nlocal:            135 ave         139 max         131 min
Histogram: 2 0 0 0 0 0 0 0 0 2
Nghost:           1185 ave        1189 max        1181 min
Histogram: 2 0 0 0 0 0 0 0 0 2
Neighs:           5805 ave        6076 max        5451 min
Histogram: 1 0 0 0 0 0 2 0 0 1

Total # of neighbors = 23220
Ave neighs/atom = 43
Neighbor list builds = 0
Dangerous builds = 0

fix  f5 all ave/time ${Nevery} ${Nrepeat} ${Nfreq}  c_thermo_temp c_thermo_pe f_f2 v_lambda file  out/ave.${dir}.${i}.out
fix  f5 all ave/time 2 ${Nrepeat} ${Nfreq}  c_thermo_temp c_thermo_pe f_f2 v_lambda file  out/ave.${dir}.${i}.out
fix  f5 all ave/time 2 500 ${Nfreq}  c_thermo_temp c_thermo_pe f_f2 v_lambda file  out/ave.${dir}.${i}.out
fix  f5 all ave/time 2 500 1000  c_thermo_temp c_thermo_pe f_f2 v_lambda file  out/ave.${dir}.${i}.out
fix  f5 all ave/time 2 500 1000  c_thermo_temp c_thermo_pe f_f2 v_lambda file  out/ave.F.${i}.out
fix  f5 all ave/time 2 500 1000  c_thermo_temp c_thermo_pe f_f2 v_lambda file  out/ave.F.11.out

run  ${nts}
run  1000
Generated 0 of 1 mixed pair_coeff terms from geometric mixing rule
Per MPI rank memory allocation (min/avg/max) = 2.978 | 2.982 | 2.987 Mbytes
   Step          Temp          E_pair         E_mol          TotEng         Press     
     10000   0.099005515   -7.2982833      0             -7.1500501      0.00050140912
     11000   0.10365975    -7.3065546      0             -7.1513529     -0.040785905  
Loop time of 0.091809 on 4 procs for 1000 steps with 540 atoms

Performance: 4705419.436 tau/day, 10892.175 timesteps/s, 5.882 Matom-step/s
99.8% CPU use with 4 MPI tasks x no OpenMP threads

MPI task timing breakdown:
Section |  min time  |  avg time  |  max time  |%varavg| %total
---------------------------------------------------------------
Pair    | 0.051739   | 0.056033   | 0.058722   |   1.1 | 61.03
Neigh   | 0.0019238  | 0.0019826  | 0.0020807  |   0.1 |  2.16
Comm    | 0.013984   | 0.017086   | 0.021663   |   2.2 | 18.61
Output  | 9.042e-06  | 3.001e-05  | 3.7125e-05 |   0.0 |  0.03
Modify  | 0.014859   | 0.015189   | 0.015565   |   0.2 | 16.54
Other   |            | 0.001488   |            |       |  1.62

Nlocal:            135 ave         137 max         133 min
Histogram: 2 0 0 0 0 0 0 0 0 2
Nghost:           1185 ave        1187 max        1183 min
Histogram: 2 0 0 0 0 0 0 0 0 2
Neighs:           5805 ave        6041 max        5584 min
Histogram: 1 0 0 1 0 1 0 0 0 1

Total # of neighbors = 23220
Ave neighs/atom = 43
Neighbor list builds = 14
Dangerous builds = 0

# --------------------------- Unfix --------------------------------------------


unfix f5
unfix f2

#%*****************************************************************************%
variable    ii   equal ${i}+1
variable    ii   equal 11+1
variable    i    equal ${ii}
variable    i    equal 12
next lam
jump SELF here
include    in.loop/loop
#*******************************************************************************#
#                                Wells loop                                     #
#*******************************************************************************#
#%       Created by:                                                           *%
#%            Nicodemo Di Pasquale                                             *%
#%            Department of Mathematics                                        *%
#%            University of Leicester                                          *%
#%            March 2018                                                       *%
#%******************************************************************************%


variable    lambda equal ${lam}
variable    lambda equal 0.22

fix f2 all wellPforce ${dw} ${rw} ${expp} ${lambda} file ${wellsfile}
fix f2 all wellPforce 6 ${rw} ${expp} ${lambda} file ${wellsfile}
fix f2 all wellPforce 6 0.661347110162023 ${expp} ${lambda} file ${wellsfile}
fix f2 all wellPforce 6 0.661347110162023 3 ${lambda} file ${wellsfile}
fix f2 all wellPforce 6 0.661347110162023 3 0.22 file ${wellsfile}
fix f2 all wellPforce 6 0.661347110162023 3 0.22 file fcc111-T01-wells.lmp

print       "Well depth ${lambda}"
Well depth 0.22
run   ${eqnts}
run   0
Generated 0 of 1 mixed pair_coeff terms from geometric mixing rule
Per MPI rank memory allocation (min/avg/max) = 2.978 | 2.982 | 2.987 Mbytes
   Step          Temp          E_pair         E_mol          TotEng         Press     
     11000   0.10365975    -7.3065546      0             -7.1513529     -0.040785905  
Loop time of 1.16675e-06 on 4 procs for 0 steps with 540 atoms

107.1% CPU use with 4 MPI tasks x no OpenMP threads

MPI task timing breakdown:
Section |  min time  |  avg time  |  max time  |%varavg| %total
---------------------------------------------------------------
Pair    | 0          | 0          | 0          |   0.0 |  0.00
Neigh   | 0          | 0          | 0          |   0.0 |  0.00
Comm    | 0          | 0          | 0          |   0.0 |  0.00
Output  | 0          | 0          | 0          |   0.0 |  0.00
Modify  | 0          | 0          | 0          |   0.0 |  0.00
Other   |            | 1.167e-06  |            |       |100.00

Nlocal:            135 ave         141 max         129 min
Histogram: 1 0 1 0 0 0 0 1 0 1
Nghost:           1185 ave        1191 max        1179 min
Histogram: 1 0 1 0 0 0 0 1 0 1
Neighs:           5805 ave        6150 max        5495 min
Histogram: 1 0 0 1 0 1 0 0 0 1

Total # of neighbors = 23220
Ave neighs/atom = 43
Neighbor list builds = 0
Dangerous builds = 0

fix  f5 all ave/time ${Nevery} ${Nrepeat} ${Nfreq}  c_thermo_temp c_thermo_pe f_f2 v_lambda file  out/ave.${dir}.${i}.out
fix  f5 all ave/time 2 ${Nrepeat} ${Nfreq}  c_thermo_temp c_thermo_pe f_f2 v_lambda file  out/ave.${dir}.${i}.out
fix  f5 all ave/time 2 500 ${Nfreq}  c_thermo_temp c_thermo_pe f_f2 v_lambda file  out/ave.${dir}.${i}.out
fix  f5 all ave/time 2 500 1000  c_thermo_temp c_thermo_pe f_f2 v_lambda file  out/ave.${dir}.${i}.out
fix  f5 all ave/time 2 500 1000  c_thermo_temp c_thermo_pe f_f2 v_lambda file  out/ave.F.${i}.out
fix  f5 all ave/time 2 500 1000  c_thermo_temp c_thermo_pe f_f2 v_lambda file  out/ave.F.12.out

run  ${nts}
run  1000
Generated 0 of 1 mixed pair_coeff terms from geometric mixing rule
Per MPI rank memory allocation (min/avg/max) = 2.978 | 2.982 | 2.987 Mbytes
   Step          Temp          E_pair         E_mol          TotEng         Press     
     11000   0.10365975    -7.3065546      0             -7.1513529     -0.040785905  
     12000   0.099007215   -7.2933301      0             -7.1450943      0.029612284  
Loop time of 0.0940055 on 4 procs for 1000 steps with 540 atoms

Performance: 4595477.324 tau/day, 10637.679 timesteps/s, 5.744 Matom-step/s
99.8% CPU use with 4 MPI tasks x no OpenMP threads

MPI task timing breakdown:
Section |  min time  |  avg time  |  max time  |%varavg| %total
---------------------------------------------------------------
Pair    | 0.052742   | 0.055991   | 0.058748   |   1.1 | 59.56
Neigh   | 0.0028335  | 0.0029388  | 0.0030693  |   0.2 |  3.13
Comm    | 0.014769   | 0.018138   | 0.021627   |   2.1 | 19.29
Output  | 9.292e-06  | 2.9469e-05 | 3.6333e-05 |   0.0 |  0.03
Modify  | 0.015011   | 0.015392   | 0.015926   |   0.3 | 16.37
Other   |            | 0.001516   |            |       |  1.61

Nlocal:            135 ave         143 max         127 min
Histogram: 1 0 0 0 1 1 0 0 0 1
Nghost:           1185 ave        1193 max        1177 min
Histogram: 1 0 0 0 1 1 0 0 0 1
Neighs:        5805.25 ave        6234 max        5600 min
Histogram: 2 0 1 0 0 0 0 0 0 1

Total # of neighbors = 23221
Ave neighs/atom = 43.001852
Neighbor list builds = 21
Dangerous builds = 0

# --------------------------- Unfix --------------------------------------------


unfix f5
unfix f2

#%*****************************************************************************%
variable    ii   equal ${i}+1
variable    ii   equal 12+1
variable    i    equal ${ii}
variable    i    equal 13
next lam
jump SELF here
include    in.loop/loop
#*******************************************************************************#
#                                Wells loop                                     #
#*******************************************************************************#
#%       Created by:                                                           *%
#%            Nicodemo Di Pasquale                                             *%
#%            Department of Mathematics                                        *%
#%            University of Leicester                                          *%
#%            March 2018                                                       *%
#%******************************************************************************%


variable    lambda equal ${lam}
variable    lambda equal 0.24

fix f2 all wellPforce ${dw} ${rw} ${expp} ${lambda} file ${wellsfile}
fix f2 all wellPforce 6 ${rw} ${expp} ${lambda} file ${wellsfile}
fix f2 all wellPforce 6 0.661347110162023 ${expp} ${lambda} file ${wellsfile}
fix f2 all wellPforce 6 0.661347110162023 3 ${lambda} file ${wellsfile}
fix f2 all wellPforce 6 0.661347110162023 3 0.24 file ${wellsfile}
fix f2 all wellPforce 6 0.661347110162023 3 0.24 file fcc111-T01-wells.lmp

print       "Well depth ${lambda}"
Well depth 0.24
run   ${eqnts}
run   0
Generated 0 of 1 mixed pair_coeff terms from geometric mixing rule
Per MPI rank memory allocation (min/avg/max) = 2.978 | 2.982 | 2.987 Mbytes
   Step          Temp          E_pair         E_mol          TotEng         Press     
     12000   0.099007215   -7.2933301      0             -7.1450943      0.029612284  
Loop time of 1.20825e-06 on 4 procs for 0 steps with 540 atoms

82.8% CPU use with 4 MPI tasks x no OpenMP threads

MPI task timing breakdown:
Section |  min time  |  avg time  |  max time  |%varavg| %total
---------------------------------------------------------------
Pair    | 0          | 0          | 0          |   0.0 |  0.00
Neigh   | 0          | 0          | 0          |   0.0 |  0.00
Comm    | 0          | 0          | 0          |   0.0 |  0.00
Output  | 0          | 0          | 0          |   0.0 |  0.00
Modify  | 0          | 0          | 0          |   0.0 |  0.00
Other   |            | 1.208e-06  |            |       |100.00

Nlocal:            135 ave         140 max         130 min
Histogram: 1 0 1 0 0 0 0 0 1 1
Nghost:           1185 ave        1190 max        1180 min
Histogram: 1 0 1 0 0 0 0 0 1 1
Neighs:        5804.75 ave        6111 max        5489 min
Histogram: 1 0 0 0 1 1 0 0 0 1

Total # of neighbors = 23219
Ave neighs/atom = 42.998148
Neighbor list builds = 0
Dangerous builds = 0

fix  f5 all ave/time ${Nevery} ${Nrepeat} ${Nfreq}  c_thermo_temp c_thermo_pe f_f2 v_lambda file  out/ave.${dir}.${i}.out
fix  f5 all ave/time 2 ${Nrepeat} ${Nfreq}  c_thermo_temp c_thermo_pe f_f2 v_lambda file  out/ave.${dir}.${i}.out
fix  f5 all ave/time 2 500 ${Nfreq}  c_thermo_temp c_thermo_pe f_f2 v_lambda file  out/ave.${dir}.${i}.out
fix  f5 all ave/time 2 500 1000  c_thermo_temp c_thermo_pe f_f2 v_lambda file  out/ave.${dir}.${i}.out
fix  f5 all ave/time 2 500 1000  c_thermo_temp c_thermo_pe f_f2 v_lambda file  out/ave.F.${i}.out
fix  f5 all ave/time 2 500 1000  c_thermo_temp c_thermo_pe f_f2 v_lambda file  out/ave.F.13.out

run  ${nts}
run  1000
Generated 0 of 1 mixed pair_coeff terms from geometric mixing rule
Per MPI rank memory allocation (min/avg/max) = 2.978 | 2.982 | 2.987 Mbytes
   Step          Temp          E_pair         E_mol          TotEng         Press     
     12000   0.099007215   -7.2933301      0             -7.1450943      0.029612284  
     13000   0.10122765    -7.2974667      0             -7.1459064      0.010720711  
Loop time of 0.0965208 on 4 procs for 1000 steps with 540 atoms

Performance: 4475719.606 tau/day, 10360.462 timesteps/s, 5.595 Matom-step/s
99.7% CPU use with 4 MPI tasks x no OpenMP threads

MPI task timing breakdown:
Section |  min time  |  avg time  |  max time  |%varavg| %total
---------------------------------------------------------------
Pair    | 0.054553   | 0.056555   | 0.058967   |   0.8 | 58.59
Neigh   | 0.0027051  | 0.0028618  | 0.0029413  |   0.2 |  2.96
Comm    | 0.017345   | 0.019543   | 0.021186   |   1.2 | 20.25
Output  | 9.292e-06  | 2.9667e-05 | 3.6625e-05 |   0.0 |  0.03
Modify  | 0.01556    | 0.015983   | 0.016475   |   0.3 | 16.56
Other   |            | 0.001549   |            |       |  1.60

Nlocal:            135 ave         141 max         129 min
Histogram: 1 1 0 0 0 0 0 0 1 1
Nghost:           1185 ave        1191 max        1179 min
Histogram: 1 1 0 0 0 0 0 0 1 1
Neighs:         5803.5 ave        6126 max        5435 min
Histogram: 1 0 0 0 1 0 1 0 0 1

Total # of neighbors = 23214
Ave neighs/atom = 42.988889
Neighbor list builds = 20
Dangerous builds = 0

# --------------------------- Unfix --------------------------------------------


unfix f5
unfix f2

#%*****************************************************************************%
variable    ii   equal ${i}+1
variable    ii   equal 13+1
variable    i    equal ${ii}
variable    i    equal 14
next lam
jump SELF here
include    in.loop/loop
#*******************************************************************************#
#                                Wells loop                                     #
#*******************************************************************************#
#%       Created by:                                                           *%
#%            Nicodemo Di Pasquale                                             *%
#%            Department of Mathematics                                        *%
#%            University of Leicester                                          *%
#%            March 2018                                                       *%
#%******************************************************************************%


variable    lambda equal ${lam}
variable    lambda equal 0.26

fix f2 all wellPforce ${dw} ${rw} ${expp} ${lambda} file ${wellsfile}
fix f2 all wellPforce 6 ${rw} ${expp} ${lambda} file ${wellsfile}
fix f2 all wellPforce 6 0.661347110162023 ${expp} ${lambda} file ${wellsfile}
fix f2 all wellPforce 6 0.661347110162023 3 ${lambda} file ${wellsfile}
fix f2 all wellPforce 6 0.661347110162023 3 0.26 file ${wellsfile}
fix f2 all wellPforce 6 0.661347110162023 3 0.26 file fcc111-T01-wells.lmp

print       "Well depth ${lambda}"
Well depth 0.26
run   ${eqnts}
run   0
Generated 0 of 1 mixed pair_coeff terms from geometric mixing rule
Per MPI rank memory allocation (min/avg/max) = 2.978 | 2.982 | 2.987 Mbytes
   Step          Temp          E_pair         E_mol          TotEng         Press     
     13000   0.10122765    -7.2974667      0             -7.1459064      0.010720711  
Loop time of 1.2395e-06 on 4 procs for 0 steps with 540 atoms

80.7% CPU use with 4 MPI tasks x no OpenMP threads

MPI task timing breakdown:
Section |  min time  |  avg time  |  max time  |%varavg| %total
---------------------------------------------------------------
Pair    | 0          | 0          | 0          |   0.0 |  0.00
Neigh   | 0          | 0          | 0          |   0.0 |  0.00
Comm    | 0          | 0          | 0          |   0.0 |  0.00
Output  | 0          | 0          | 0          |   0.0 |  0.00
Modify  | 0          | 0          | 0          |   0.0 |  0.00
Other   |            | 1.239e-06  |            |       |100.00

Nlocal:            135 ave         139 max         131 min
Histogram: 1 0 1 0 0 0 0 1 0 1
Nghost:           1184 ave        1189 max        1181 min
Histogram: 2 0 0 0 0 1 0 0 0 1
Neighs:           5805 ave        6131 max        5578 min
Histogram: 1 0 1 1 0 0 0 0 0 1

Total # of neighbors = 23220
Ave neighs/atom = 43
Neighbor list builds = 0
Dangerous builds = 0

fix  f5 all ave/time ${Nevery} ${Nrepeat} ${Nfreq}  c_thermo_temp c_thermo_pe f_f2 v_lambda file  out/ave.${dir}.${i}.out
fix  f5 all ave/time 2 ${Nrepeat} ${Nfreq}  c_thermo_temp c_thermo_pe f_f2 v_lambda file  out/ave.${dir}.${i}.out
fix  f5 all ave/time 2 500 ${Nfreq}  c_thermo_temp c_thermo_pe f_f2 v_lambda file  out/ave.${dir}.${i}.out
fix  f5 all ave/time 2 500 1000  c_thermo_temp c_thermo_pe f_f2 v_lambda file  out/ave.${dir}.${i}.out
fix  f5 all ave/time 2 500 1000  c_thermo_temp c_thermo_pe f_f2 v_lambda file  out/ave.F.${i}.out
fix  f5 all ave/time 2 500 1000  c_thermo_temp c_thermo_pe f_f2 v_lambda file  out/ave.F.14.out

run  ${nts}
run  1000
Generated 0 of 1 mixed pair_coeff terms from geometric mixing rule
Per MPI rank memory allocation (min/avg/max) = 2.978 | 2.982 | 2.987 Mbytes
   Step          Temp          E_pair         E_mol          TotEng         Press     
     13000   0.10122765    -7.2974667      0             -7.1459064      0.010720711  
     14000   0.098257928   -7.2953398      0             -7.1482258      0.019081933  
Loop time of 0.0936274 on 4 procs for 1000 steps with 540 atoms

Performance: 4614036.193 tau/day, 10680.639 timesteps/s, 5.768 Matom-step/s
99.8% CPU use with 4 MPI tasks x no OpenMP threads

MPI task timing breakdown:
Section |  min time  |  avg time  |  max time  |%varavg| %total
---------------------------------------------------------------
Pair    | 0.051901   | 0.055965   | 0.059127   |   1.2 | 59.77
Neigh   | 0.0022796  | 0.0023941  | 0.002507   |   0.2 |  2.56
Comm    | 0.014804   | 0.018239   | 0.022965   |   2.5 | 19.48
Output  | 1.1709e-05 | 2.8219e-05 | 3.375e-05  |   0.0 |  0.03
Modify  | 0.014918   | 0.01548    | 0.016531   |   0.5 | 16.53
Other   |            | 0.001522   |            |       |  1.63

Nlocal:            135 ave         139 max         131 min
Histogram: 1 1 0 0 0 0 0 0 1 1
Nghost:           1185 ave        1189 max        1181 min
Histogram: 1 1 0 0 0 0 0 0 1 1
Neighs:        5804.75 ave        6111 max        5506 min
Histogram: 1 0 0 0 1 1 0 0 0 1

Total # of neighbors = 23219
Ave neighs/atom = 42.998148
Neighbor list builds = 17
Dangerous builds = 0

# --------------------------- Unfix --------------------------------------------


unfix f5
unfix f2

#%*****************************************************************************%
variable    ii   equal ${i}+1
variable    ii   equal 14+1
variable    i    equal ${ii}
variable    i    equal 15
next lam
jump SELF here
include    in.loop/loop
#*******************************************************************************#
#                                Wells loop                                     #
#*******************************************************************************#
#%       Created by:                                                           *%
#%            Nicodemo Di Pasquale                                             *%
#%            Department of Mathematics                                        *%
#%            University of Leicester                                          *%
#%            March 2018                                                       *%
#%******************************************************************************%


variable    lambda equal ${lam}
variable    lambda equal 0.28

fix f2 all wellPforce ${dw} ${rw} ${expp} ${lambda} file ${wellsfile}
fix f2 all wellPforce 6 ${rw} ${expp} ${lambda} file ${wellsfile}
fix f2 all wellPforce 6 0.661347110162023 ${expp} ${lambda} file ${wellsfile}
fix f2 all wellPforce 6 0.661347110162023 3 ${lambda} file ${wellsfile}
fix f2 all wellPforce 6 0.661347110162023 3 0.28 file ${wellsfile}
fix f2 all wellPforce 6 0.661347110162023 3 0.28 file fcc111-T01-wells.lmp

print       "Well depth ${lambda}"
Well depth 0.28
run   ${eqnts}
run   0
Generated 0 of 1 mixed pair_coeff terms from geometric mixing rule
Per MPI rank memory allocation (min/avg/max) = 2.978 | 2.982 | 2.987 Mbytes
   Step          Temp          E_pair         E_mol          TotEng         Press     
[...]

fix f2 all wellPforce ${dw} ${rw} ${expp} ${lambda} file ${wellsfile}
fix f2 all wellPforce 6 ${rw} ${expp} ${lambda} file ${wellsfile}
fix f2 all wellPforce 6 0.661347110162023 ${expp} ${lambda} file ${wellsfile}
fix f2 all wellPforce 6 0.661347110162023 3 ${lambda} file ${wellsfile}
fix f2 all wellPforce 6 0.661347110162023 3 0.94 file ${wellsfile}
fix f2 all wellPforce 6 0.661347110162023 3 0.94 file fcc111-T01-wells.lmp

print       "Well depth ${lambda}"
Well depth 0.94
run   ${eqnts}
run   0
Generated 0 of 1 mixed pair_coeff terms from geometric mixing rule
Per MPI rank memory allocation (min/avg/max) = 2.978 | 2.983 | 2.987 Mbytes
   Step          Temp          E_pair         E_mol          TotEng         Press     
     47000   0.10274048    -7.2958646      0             -7.1420392      0.037333469  
Loop time of 8.855e-07 on 4 procs for 0 steps with 540 atoms

112.9% CPU use with 4 MPI tasks x no OpenMP threads

MPI task timing breakdown:
Section |  min time  |  avg time  |  max time  |%varavg| %total
---------------------------------------------------------------
Pair    | 0          | 0          | 0          |   0.0 |  0.00
Neigh   | 0          | 0          | 0          |   0.0 |  0.00
Comm    | 0          | 0          | 0          |   0.0 |  0.00
Output  | 0          | 0          | 0          |   0.0 |  0.00
Modify  | 0          | 0          | 0          |   0.0 |  0.00
Other   |            | 8.855e-07  |            |       |100.00

Nlocal:            135 ave         139 max         131 min
Histogram: 1 0 1 0 0 0 0 1 0 1
Nghost:           1185 ave        1189 max        1181 min
Histogram: 1 0 1 0 0 0 0 1 0 1
Neighs:        5865.25 ave        6038 max        5447 min
Histogram: 1 0 0 0 0 0 0 0 1 2

Total # of neighbors = 23461
Ave neighs/atom = 43.446296
Neighbor list builds = 0
Dangerous builds = 0

fix  f5 all ave/time ${Nevery} ${Nrepeat} ${Nfreq}  c_thermo_temp c_thermo_pe f_f2 v_lambda file  out/ave.${dir}.${i}.out
fix  f5 all ave/time 2 ${Nrepeat} ${Nfreq}  c_thermo_temp c_thermo_pe f_f2 v_lambda file  out/ave.${dir}.${i}.out
fix  f5 all ave/time 2 500 ${Nfreq}  c_thermo_temp c_thermo_pe f_f2 v_lambda file  out/ave.${dir}.${i}.out
fix  f5 all ave/time 2 500 1000  c_thermo_temp c_thermo_pe f_f2 v_lambda file  out/ave.${dir}.${i}.out
fix  f5 all ave/time 2 500 1000  c_thermo_temp c_thermo_pe f_f2 v_lambda file  out/ave.F.${i}.out
fix  f5 all ave/time 2 500 1000  c_thermo_temp c_thermo_pe f_f2 v_lambda file  out/ave.F.48.out

run  ${nts}
run  1000
Generated 0 of 1 mixed pair_coeff terms from geometric mixing rule
Per MPI rank memory allocation (min/avg/max) = 2.978 | 2.983 | 2.987 Mbytes
   Step          Temp          E_pair         E_mol          TotEng         Press     
     47000   0.10274048    -7.2958646      0             -7.1420392      0.037333469  
     48000   0.097154101   -7.3052402      0             -7.159779      -0.024842017  
Loop time of 0.0951254 on 4 procs for 1000 steps with 540 atoms

Performance: 4541371.528 tau/day, 10512.434 timesteps/s, 5.677 Matom-step/s
99.8% CPU use with 4 MPI tasks x no OpenMP threads

MPI task timing breakdown:
Section |  min time  |  avg time  |  max time  |%varavg| %total
---------------------------------------------------------------
Pair    | 0.051439   | 0.055954   | 0.059773   |   1.6 | 58.82
Neigh   | 0.0028716  | 0.0031165  | 0.0033283  |   0.3 |  3.28
Comm    | 0.014912   | 0.019302   | 0.024337   |   3.1 | 20.29
Output  | 9.167e-06  | 2.8292e-05 | 3.475e-05  |   0.0 |  0.03
Modify  | 0.014788   | 0.015195   | 0.015867   |   0.3 | 15.97
Other   |            | 0.00153    |            |       |  1.61

Nlocal:            135 ave         140 max         130 min
Histogram: 1 1 0 0 0 0 0 0 0 2
Nghost:           1185 ave        1190 max        1180 min
Histogram: 1 1 0 0 0 0 0 0 0 2
Neighs:        5871.25 ave        6237 max        5384 min
Histogram: 1 0 0 0 0 1 0 1 0 1

Total # of neighbors = 23485
Ave neighs/atom = 43.490741
Neighbor list builds = 22
Dangerous builds = 0

# --------------------------- Unfix --------------------------------------------


unfix f5
unfix f2

#%*****************************************************************************%
variable    ii   equal ${i}+1
variable    ii   equal 48+1
variable    i    equal ${ii}
variable    i    equal 49
next lam
jump SELF here
include    in.loop/loop
#*******************************************************************************#
#                                Wells loop                                     #
#*******************************************************************************#
#%       Created by:                                                           *%
#%            Nicodemo Di Pasquale                                             *%
#%            Department of Mathematics                                        *%
#%            University of Leicester                                          *%
#%            March 2018                                                       *%
#%******************************************************************************%


variable    lambda equal ${lam}
variable    lambda equal 0.96

fix f2 all wellPforce ${dw} ${rw} ${expp} ${lambda} file ${wellsfile}
fix f2 all wellPforce 6 ${rw} ${expp} ${lambda} file ${wellsfile}
fix f2 all wellPforce 6 0.661347110162023 ${expp} ${lambda} file ${wellsfile}
fix f2 all wellPforce 6 0.661347110162023 3 ${lambda} file ${wellsfile}
fix f2 all wellPforce 6 0.661347110162023 3 0.96 file ${wellsfile}
fix f2 all wellPforce 6 0.661347110162023 3 0.96 file fcc111-T01-wells.lmp

print       "Well depth ${lambda}"
Well depth 0.96
run   ${eqnts}
run   0
Generated 0 of 1 mixed pair_coeff terms from geometric mixing rule
Per MPI rank memory allocation (min/avg/max) = 2.978 | 2.983 | 2.987 Mbytes
   Step          Temp          E_pair         E_mol          TotEng         Press     
     48000   0.097154101   -7.3052402      0             -7.159779      -0.024842017  
Loop time of 1.12525e-06 on 4 procs for 0 steps with 540 atoms

88.9% CPU use with 4 MPI tasks x no OpenMP threads

MPI task timing breakdown:
Section |  min time  |  avg time  |  max time  |%varavg| %total
---------------------------------------------------------------
Pair    | 0          | 0          | 0          |   0.0 |  0.00
Neigh   | 0          | 0          | 0          |   0.0 |  0.00
Comm    | 0          | 0          | 0          |   0.0 |  0.00
Output  | 0          | 0          | 0          |   0.0 |  0.00
Modify  | 0          | 0          | 0          |   0.0 |  0.00
Other   |            | 1.125e-06  |            |       |100.00

Nlocal:            135 ave         141 max         129 min
Histogram: 2 0 0 0 0 0 0 0 0 2
Nghost:           1185 ave        1191 max        1179 min
Histogram: 2 0 0 0 0 0 0 0 0 2
Neighs:           5872 ave        6268 max        5319 min
Histogram: 1 0 0 0 0 1 0 0 1 1

Total # of neighbors = 23488
Ave neighs/atom = 43.496296
Neighbor list builds = 0
Dangerous builds = 0

fix  f5 all ave/time ${Nevery} ${Nrepeat} ${Nfreq}  c_thermo_temp c_thermo_pe f_f2 v_lambda file  out/ave.${dir}.${i}.out
fix  f5 all ave/time 2 ${Nrepeat} ${Nfreq}  c_thermo_temp c_thermo_pe f_f2 v_lambda file  out/ave.${dir}.${i}.out
fix  f5 all ave/time 2 500 ${Nfreq}  c_thermo_temp c_thermo_pe f_f2 v_lambda file  out/ave.${dir}.${i}.out
fix  f5 all ave/time 2 500 1000  c_thermo_temp c_thermo_pe f_f2 v_lambda file  out/ave.${dir}.${i}.out
fix  f5 all ave/time 2 500 1000  c_thermo_temp c_thermo_pe f_f2 v_lambda file  out/ave.F.${i}.out
fix  f5 all ave/time 2 500 1000  c_thermo_temp c_thermo_pe f_f2 v_lambda file  out/ave.F.49.out

run  ${nts}
run  1000
Generated 0 of 1 mixed pair_coeff terms from geometric mixing rule
Per MPI rank memory allocation (min/avg/max) = 2.978 | 2.983 | 2.987 Mbytes
   Step          Temp          E_pair         E_mol          TotEng         Press     
     48000   0.097154101   -7.3052402      0             -7.159779      -0.024842017  
     49000   0.098888641   -7.3039863      0             -7.155928      -0.014343036  
Loop time of 0.0942091 on 4 procs for 1000 steps with 540 atoms

Performance: 4585545.610 tau/day, 10614.689 timesteps/s, 5.732 Matom-step/s
99.7% CPU use with 4 MPI tasks x no OpenMP threads

MPI task timing breakdown:
Section |  min time  |  avg time  |  max time  |%varavg| %total
---------------------------------------------------------------
Pair    | 0.05315    | 0.055907   | 0.060031   |   1.1 | 59.34
Neigh   | 0.0021375  | 0.002274   | 0.0024115  |   0.2 |  2.41
Comm    | 0.015168   | 0.019263   | 0.022304   |   1.9 | 20.45
Output  | 9.916e-06  | 3.3271e-05 | 4.1208e-05 |   0.0 |  0.04
Modify  | 0.014976   | 0.015202   | 0.015749   |   0.3 | 16.14
Other   |            | 0.00153    |            |       |  1.62

Nlocal:            135 ave         138 max         132 min
Histogram: 1 0 0 1 0 0 1 0 0 1
Nghost:           1185 ave        1188 max        1182 min
Histogram: 1 0 0 1 0 0 1 0 0 1
Neighs:        5868.75 ave        6131 max        5488 min
Histogram: 1 0 0 0 0 0 1 1 0 1

Total # of neighbors = 23475
Ave neighs/atom = 43.472222
Neighbor list builds = 16
Dangerous builds = 0

# --------------------------- Unfix --------------------------------------------


unfix f5
unfix f2

#%*****************************************************************************%
variable    ii   equal ${i}+1
variable    ii   equal 49+1
variable    i    equal ${ii}
variable    i    equal 50
next lam
jump SELF here
include    in.loop/loop
#*******************************************************************************#
#                                Wells loop                                     #
#*******************************************************************************#
#%       Created by:                                                           *%
#%            Nicodemo Di Pasquale                                             *%
#%            Department of Mathematics                                        *%
#%            University of Leicester                                          *%
#%            March 2018                                                       *%
#%******************************************************************************%


variable    lambda equal ${lam}
variable    lambda equal 0.98

fix f2 all wellPforce ${dw} ${rw} ${expp} ${lambda} file ${wellsfile}
fix f2 all wellPforce 6 ${rw} ${expp} ${lambda} file ${wellsfile}
fix f2 all wellPforce 6 0.661347110162023 ${expp} ${lambda} file ${wellsfile}
fix f2 all wellPforce 6 0.661347110162023 3 ${lambda} file ${wellsfile}
fix f2 all wellPforce 6 0.661347110162023 3 0.98 file ${wellsfile}
fix f2 all wellPforce 6 0.661347110162023 3 0.98 file fcc111-T01-wells.lmp

print       "Well depth ${lambda}"
Well depth 0.98
run   ${eqnts}
run   0
Generated 0 of 1 mixed pair_coeff terms from geometric mixing rule
Per MPI rank memory allocation (min/avg/max) = 2.978 | 2.983 | 2.987 Mbytes
   Step          Temp          E_pair         E_mol          TotEng         Press     
     49000   0.098888641   -7.3039863      0             -7.155928      -0.014343036  
Loop time of 9.48e-07 on 4 procs for 0 steps with 540 atoms

79.1% CPU use with 4 MPI tasks x no OpenMP threads

MPI task timing breakdown:
Section |  min time  |  avg time  |  max time  |%varavg| %total
---------------------------------------------------------------
Pair    | 0          | 0          | 0          |   0.0 |  0.00
Neigh   | 0          | 0          | 0          |   0.0 |  0.00
Comm    | 0          | 0          | 0          |   0.0 |  0.00
Output  | 0          | 0          | 0          |   0.0 |  0.00
Modify  | 0          | 0          | 0          |   0.0 |  0.00
Other   |            | 9.48e-07   |            |       |100.00

Nlocal:            135 ave         140 max         130 min
Histogram: 1 0 0 0 1 0 1 0 0 1
Nghost:           1185 ave        1190 max        1180 min
Histogram: 1 0 0 0 1 0 1 0 0 1
Neighs:        5871.25 ave        6040 max        5389 min
Histogram: 1 0 0 0 0 0 0 0 0 3

Total # of neighbors = 23485
Ave neighs/atom = 43.490741
Neighbor list builds = 0
Dangerous builds = 0

fix  f5 all ave/time ${Nevery} ${Nrepeat} ${Nfreq}  c_thermo_temp c_thermo_pe f_f2 v_lambda file  out/ave.${dir}.${i}.out
fix  f5 all ave/time 2 ${Nrepeat} ${Nfreq}  c_thermo_temp c_thermo_pe f_f2 v_lambda file  out/ave.${dir}.${i}.out
fix  f5 all ave/time 2 500 ${Nfreq}  c_thermo_temp c_thermo_pe f_f2 v_lambda file  out/ave.${dir}.${i}.out
fix  f5 all ave/time 2 500 1000  c_thermo_temp c_thermo_pe f_f2 v_lambda file  out/ave.${dir}.${i}.out
fix  f5 all ave/time 2 500 1000  c_thermo_temp c_thermo_pe f_f2 v_lambda file  out/ave.F.${i}.out
fix  f5 all ave/time 2 500 1000  c_thermo_temp c_thermo_pe f_f2 v_lambda file  out/ave.F.50.out

run  ${nts}
run  1000
Generated 0 of 1 mixed pair_coeff terms from geometric mixing rule
Per MPI rank memory allocation (min/avg/max) = 2.978 | 2.983 | 2.987 Mbytes
   Step          Temp          E_pair         E_mol          TotEng         Press     
     49000   0.098888641   -7.3039863      0             -7.155928      -0.014343036  
     50000   0.098385766   -7.2958732      0             -7.1485679      0.031582829  
Loop time of 0.0949468 on 4 procs for 1000 steps with 540 atoms

Performance: 4549914.266 tau/day, 10532.209 timesteps/s, 5.687 Matom-step/s
99.7% CPU use with 4 MPI tasks x no OpenMP threads

MPI task timing breakdown:
Section |  min time  |  avg time  |  max time  |%varavg| %total
---------------------------------------------------------------
Pair    | 0.053041   | 0.056069   | 0.058599   |   0.9 | 59.05
Neigh   | 0.0026602  | 0.0028446  | 0.0029408  |   0.2 |  3.00
Comm    | 0.01711    | 0.019292   | 0.021996   |   1.3 | 20.32
Output  | 7.666e-06  | 3.0489e-05 | 3.8167e-05 |   0.0 |  0.03
Modify  | 0.014763   | 0.015183   | 0.015655   |   0.3 | 15.99
Other   |            | 0.001528   |            |       |  1.61

Nlocal:            135 ave         138 max         132 min
Histogram: 1 0 0 0 0 2 0 0 0 1
Nghost:           1185 ave        1188 max        1182 min
Histogram: 1 0 0 0 0 2 0 0 0 1
Neighs:           5878 ave        6227 max        5629 min
Histogram: 1 0 1 0 1 0 0 0 0 1

Total # of neighbors = 23512
Ave neighs/atom = 43.540741
Neighbor list builds = 20
Dangerous builds = 0

# --------------------------- Unfix --------------------------------------------


unfix f5
unfix f2

#%*****************************************************************************%
variable    ii   equal ${i}+1
variable    ii   equal 50+1
variable    i    equal ${ii}
variable    i    equal 51
next lam
jump SELF here
include    in.loop/loop
#*******************************************************************************#
#                                Wells loop                                     #
#*******************************************************************************#
#%       Created by:                                                           *%
#%            Nicodemo Di Pasquale                                             *%
#%            Department of Mathematics                                        *%
#%            University of Leicester                                          *%
#%            March 2018                                                       *%
#%******************************************************************************%


variable    lambda equal ${lam}
variable    lambda equal 1

fix f2 all wellPforce ${dw} ${rw} ${expp} ${lambda} file ${wellsfile}
fix f2 all wellPforce 6 ${rw} ${expp} ${lambda} file ${wellsfile}
fix f2 all wellPforce 6 0.661347110162023 ${expp} ${lambda} file ${wellsfile}
fix f2 all wellPforce 6 0.661347110162023 3 ${lambda} file ${wellsfile}
fix f2 all wellPforce 6 0.661347110162023 3 1 file ${wellsfile}
fix f2 all wellPforce 6 0.661347110162023 3 1 file fcc111-T01-wells.lmp

print       "Well depth ${lambda}"
Well depth 1
run   ${eqnts}
run   0
Generated 0 of 1 mixed pair_coeff terms from geometric mixing rule
Per MPI rank memory allocation (min/avg/max) = 2.978 | 2.983 | 2.987 Mbytes
   Step          Temp          E_pair         E_mol          TotEng         Press     
     50000   0.098385766   -7.2958732      0             -7.1485679      0.031582829  
Loop time of 1.177e-06 on 4 procs for 0 steps with 540 atoms

85.0% CPU use with 4 MPI tasks x no OpenMP threads

MPI task timing breakdown:
Section |  min time  |  avg time  |  max time  |%varavg| %total
---------------------------------------------------------------
Pair    | 0          | 0          | 0          |   0.0 |  0.00
Neigh   | 0          | 0          | 0          |   0.0 |  0.00
Comm    | 0          | 0          | 0          |   0.0 |  0.00
Output  | 0          | 0          | 0          |   0.0 |  0.00
Modify  | 0          | 0          | 0          |   0.0 |  0.00
Other   |            | 1.177e-06  |            |       |100.00

Nlocal:            135 ave         139 max         131 min
Histogram: 1 1 0 0 0 0 0 0 1 1
Nghost:           1185 ave        1189 max        1181 min
Histogram: 1 1 0 0 0 0 0 0 1 1
Neighs:        5874.75 ave        6205 max        5410 min
Histogram: 1 0 0 0 0 0 1 1 0 1

Total # of neighbors = 23499
Ave neighs/atom = 43.516667
Neighbor list builds = 0
Dangerous builds = 0

fix  f5 all ave/time ${Nevery} ${Nrepeat} ${Nfreq}  c_thermo_temp c_thermo_pe f_f2 v_lambda file  out/ave.${dir}.${i}.out
fix  f5 all ave/time 2 ${Nrepeat} ${Nfreq}  c_thermo_temp c_thermo_pe f_f2 v_lambda file  out/ave.${dir}.${i}.out
fix  f5 all ave/time 2 500 ${Nfreq}  c_thermo_temp c_thermo_pe f_f2 v_lambda file  out/ave.${dir}.${i}.out
fix  f5 all ave/time 2 500 1000  c_thermo_temp c_thermo_pe f_f2 v_lambda file  out/ave.${dir}.${i}.out
fix  f5 all ave/time 2 500 1000  c_thermo_temp c_thermo_pe f_f2 v_lambda file  out/ave.F.${i}.out
fix  f5 all ave/time 2 500 1000  c_thermo_temp c_thermo_pe f_f2 v_lambda file  out/ave.F.51.out

run  ${nts}
run  1000
Generated 0 of 1 mixed pair_coeff terms from geometric mixing rule
Per MPI rank memory allocation (min/avg/max) = 2.978 | 2.983 | 2.987 Mbytes
   Step          Temp          E_pair         E_mol          TotEng         Press     
     50000   0.098385766   -7.2958732      0             -7.1485679      0.031582829  
     51000   0.096483533   -7.3050149      0             -7.1605576     -0.026087331  
Loop time of 0.094796 on 4 procs for 1000 steps with 540 atoms

Performance: 4557154.298 tau/day, 10548.968 timesteps/s, 5.696 Matom-step/s
99.7% CPU use with 4 MPI tasks x no OpenMP threads

MPI task timing breakdown:
Section |  min time  |  avg time  |  max time  |%varavg| %total
---------------------------------------------------------------
Pair    | 0.052712   | 0.056104   | 0.059182   |   1.3 | 59.18
Neigh   | 0.0026981  | 0.0028571  | 0.0029673  |   0.2 |  3.01
Comm    | 0.015627   | 0.019063   | 0.022494   |   2.3 | 20.11
Output  | 8.333e-06  | 3.0781e-05 | 3.8291e-05 |   0.0 |  0.03
Modify  | 0.014987   | 0.015209   | 0.015562   |   0.2 | 16.04
Other   |            | 0.001531   |            |       |  1.62

Nlocal:            135 ave         139 max         131 min
Histogram: 1 0 0 1 0 0 1 0 0 1
Nghost:           1185 ave        1189 max        1181 min
Histogram: 1 0 0 1 0 0 1 0 0 1
Neighs:        5871.75 ave        6166 max        5438 min
Histogram: 1 0 0 0 0 0 1 1 0 1

Total # of neighbors = 23487
Ave neighs/atom = 43.494444
Neighbor list builds = 20
Dangerous builds = 0

# --------------------------- Unfix --------------------------------------------


unfix f5
unfix f2

#%*****************************************************************************%
variable    ii   equal ${i}+1
variable    ii   equal 51+1
variable    i    equal ${ii}
variable    i    equal 52
next lam
jump SELF here

write_data Fstep1.${i}.data nocoeff
write_data Fstep1.52.data nocoeff
System init for write_data ...
Generated 0 of 1 mixed pair_coeff terms from geometric mixing rule
Total wall time: 0:00:04
