 LAMMPS lj fcc 111 crystal

        4752 atoms
           1 atom types

   0.00000000       12.582117838195341      xlo xhi
   0.00000000       11.887018561403465      ylo yhi
   0.00000000       33.621565731434998      zlo zhi

 Atoms

           1           1  0.85787167078604587       0.49529244005847761       0.46696619071437490     
           2           1  0.28595722359534864        1.4858773201754327       0.46696619071437490     
           3           1   2.0017005651674404       0.49529244005847761       0.46696619071437490     
           4           1   1.4297861179767433        1.4858773201754327       0.46696619071437490     
           5           1   3.1455294595488352       0.49529244005847761       0.46696619071437490     
           6           1   2.5736150123581378        1.4858773201754327       0.46696619071437490     
           7           1   4.2893583539302300       0.49529244005847761       0.46696619071437490     
           8           1   3.7174439067395322        1.4858773201754327       0.46696619071437490     
           9           1   5.4331872483116239       0.49529244005847761       0.46696619071437490     
          10           1   4.8612728011209265        1.4858773201754327       0.46696619071437490     
          11           1   6.5770161426930187       0.49529244005847761       0.46696619071437490     
          12           1   6.0051016955023213        1.4858773201754327       0.46696619071437490     
          13           1   7.7208450370744135       0.49529244005847761       0.46696619071437490     
          14           1   7.1489305898837161        1.4858773201754327       0.46696619071437490     
          15           1   8.8646739314558083       0.49529244005847761       0.46696619071437490     
          16           1   8.2927594842651100        1.4858773201754327       0.46696619071437490     
          17           1   10.008502825837203       0.49529244005847761       0.46696619071437490     
          18           1   9.4365883786465048        1.4858773201754327       0.46696619071437490     
          19           1   11.152331720218598       0.49529244005847761       0.46696619071437490     
          20           1   10.580417273027900        1.4858773201754327       0.46696619071437490     
          21           1   12.296160614599991       0.49529244005847761       0.46696619071437490     
          22           1   11.724246167409294        1.4858773201754327       0.46696619071437490     
          23           1  0.85787167078604587        2.4764622002923882       0.46696619071437490     
          24           1  0.28595722359534864        3.4670470804093432       0.46696619071437490     
          25           1   2.0017005651674404        2.4764622002923882       0.46696619071437490     
          26           1   1.4297861179767433        3.4670470804093432       0.46696619071437490     
          27           1   3.1455294595488352        2.4764622002923882       0.46696619071437490     
          28           1   2.5736150123581378        3.4670470804093432       0.46696619071437490     
          29           1   4.2893583539302300        2.4764622002923882       0.46696619071437490     
          30           1   3.7174439067395322        3.4670470804093432       0.46696619071437490     
          31           1   5.4331872483116239        2.4764622002923882       0.46696619071437490     
          32           1   4.8612728011209265        3.4670470804093432       0.46696619071437490     
          33           1   6.5770161426930187        2.4764622002923882       0.46696619071437490     
          34           1   6.0051016955023213        3.4670470804093432       0.46696619071437490     
          35           1   7.7208450370744135        2.4764622002923882       0.46696619071437490     
          36           1   7.1489305898837161        3.4670470804093432       0.46696619071437490     
          37           1   8.8646739314558083        2.4764622002923882       0.46696619071437490     
          38           1   8.2927594842651100        3.4670470804093432       0.46696619071437490     
          39           1   10.008502825837203        2.4764622002923882       0.46696619071437490     
          40           1   9.4365883786465048        3.4670470804093432       0.46696619071437490     
          41           1   11.152331720218598        2.4764622002923882       0.46696619071437490     
          42           1   10.580417273027900        3.4670470804093432       0.46696619071437490     
          43           1   12.296160614599991        2.4764622002923882       0.46696619071437490     
          44           1   11.724246167409294        3.4670470804093432       0.46696619071437490     
          45           1  0.85787167078604587        4.4576319605262986       0.46696619071437490     
          46           1  0.28595722359534864        5.4482168406432541       0.46696619071437490     
          47           1   2.0017005651674404        4.4576319605262986       0.46696619071437490     
          48           1   1.4297861179767433        5.4482168406432541       0.46696619071437490     
          49           1   3.1455294595488352        4.4576319605262986       0.46696619071437490     
          50           1   2.5736150123581378        5.4482168406432541       0.46696619071437490     
          51           1   4.2893583539302300        4.4576319605262986       0.46696619071437490     
          52           1   3.7174439067395322        5.4482168406432541       0.46696619071437490     
          53           1   5.4331872483116239        4.4576319605262986       0.46696619071437490     
          54           1   4.8612728011209265        5.4482168406432541       0.46696619071437490     
          55           1   6.5770161426930187        4.4576319605262986       0.46696619071437490     
          56           1   6.0051016955023213        5.4482168406432541       0.46696619071437490     
          57           1   7.7208450370744135        4.4576319605262986       0.46696619071437490     
          58           1   7.1489305898837161        5.4482168406432541       0.46696619071437490     
          59           1   8.8646739314558083        4.4576319605262986       0.46696619071437490     
          60           1   8.2927594842651100        5.4482168406432541       0.46696619071437490     
          61           1   10.008502825837203        4.4576319605262986       0.46696619071437490     
          62           1   9.4365883786465048        5.4482168406432541       0.46696619071437490     
          63           1   11.152331720218598        4.4576319605262986       0.46696619071437490     
          64           1   10.580417273027900        5.4482168406432541       0.46696619071437490     
          65           1   12.296160614599991        4.4576319605262986       0.46696619071437490     
          66           1   11.724246167409294        5.4482168406432541       0.46696619071437490     
          67           1  0.85787167078604587        6.4388017207602086       0.46696619071437490     
          68           1  0.28595722359534864        7.4293866008771641       0.46696619071437490     
          69           1   2.0017005651674404        6.4388017207602086       0.46696619071437490     
          70           1   1.4297861179767433        7.4293866008771641       0.46696619071437490     
          71           1   3.1455294595488352        6.4388017207602086       0.46696619071437490     
          72           1   2.5736150123581378        7.4293866008771641       0.46696619071437490     
          73           1   4.2893583539302300        6.4388017207602086       0.46696619071437490     
          74           1   3.7174439067395322        7.4293866008771641       0.46696619071437490     
          75           1   5.4331872483116239        6.4388017207602086       0.46696619071437490     
          76           1   4.8612728011209265        7.4293866008771641       0.46696619071437490     
          77           1   6.5770161426930187        6.4388017207602086       0.46696619071437490     
          78           1   6.0051016955023213        7.4293866008771641       0.46696619071437490     
          79           1   7.7208450370744135        6.4388017207602086       0.46696619071437490     
          80           1   7.1489305898837161        7.4293866008771641       0.46696619071437490     
          81           1   8.8646739314558083        6.4388017207602086       0.46696619071437490     
          82           1   8.2927594842651100        7.4293866008771641       0.46696619071437490     
          83           1   10.008502825837203        6.4388017207602086       0.46696619071437490     
          84           1   9.4365883786465048        7.4293866008771641       0.46696619071437490     
          85           1   11.152331720218598        6.4388017207602086       0.46696619071437490     
          86           1   10.580417273027900        7.4293866008771641       0.46696619071437490     
          87           1   12.296160614599991        6.4388017207602086       0.46696619071437490     
          88           1   11.724246167409294        7.4293866008771641       0.46696619071437490     
          89           1  0.85787167078604587        8.4199714809941195       0.46696619071437490     
          90           1  0.28595722359534864        9.4105563611110750       0.46696619071437490     
          91           1   2.0017005651674404        8.4199714809941195       0.46696619071437490     
          92           1   1.4297861179767433        9.4105563611110750       0.46696619071437490     
          93           1   3.1455294595488352        8.4199714809941195       0.46696619071437490     
          94           1   2.5736150123581378        9.4105563611110750       0.46696619071437490     
          95           1   4.2893583539302300        8.4199714809941195       0.46696619071437490     
          96           1   3.7174439067395322        9.4105563611110750       0.46696619071437490     
          97           1   5.4331872483116239        8.4199714809941195       0.46696619071437490     
          98           1   4.8612728011209265        9.4105563611110750       0.46696619071437490     
          99           1   6.5770161426930187        8.4199714809941195       0.46696619071437490     
         100           1   6.0051016955023213        9.4105563611110750       0.46696619071437490     
         101           1   7.7208450370744135        8.4199714809941195       0.46696619071437490     
         102           1   7.1489305898837161        9.4105563611110750       0.46696619071437490     
         103           1   8.8646739314558083        8.4199714809941195       0.46696619071437490     
         104           1   8.2927594842651100        9.4105563611110750       0.46696619071437490     
         105           1   10.008502825837203        8.4199714809941195       0.46696619071437490     
         106           1   9.4365883786465048        9.4105563611110750       0.46696619071437490     
         107           1   11.152331720218598        8.4199714809941195       0.46696619071437490     
         108           1   10.580417273027900        9.4105563611110750       0.46696619071437490     
         109           1   12.296160614599991        8.4199714809941195       0.46696619071437490     
         110           1   11.724246167409294        9.4105563611110750       0.46696619071437490     
         111           1  0.85787167078604587        10.401141241228030       0.46696619071437490     
         112           1  0.28595722359534864        11.391726121344986       0.46696619071437490     
         113           1   2.0017005651674404        10.401141241228030       0.46696619071437490     
         114           1   1.4297861179767433        11.391726121344986       0.46696619071437490     
         115           1   3.1455294595488352        10.401141241228030       0.46696619071437490     
         116           1   2.5736150123581378        11.391726121344986       0.46696619071437490     
         117           1   4.2893583539302300        10.401141241228030       0.46696619071437490     
         118           1   3.7174439067395322        11.391726121344986       0.46696619071437490     
         119           1   5.4331872483116239        10.401141241228030       0.46696619071437490     
         120           1   4.8612728011209265        11.391726121344986       0.46696619071437490     
         121           1   6.5770161426930187        10.401141241228030       0.46696619071437490     
         122           1   6.0051016955023213        11.391726121344986       0.46696619071437490     
         123           1   7.7208450370744135        10.401141241228030       0.46696619071437490     
         124           1   7.1489305898837161        11.391726121344986       0.46696619071437490     
         125           1   8.8646739314558083        10.401141241228030       0.46696619071437490     
         126           1   8.2927594842651100        11.391726121344986       0.46696619071437490     
         127           1   10.008502825837203        10.401141241228030       0.46696619071437490     
         128           1   9.4365883786465048        11.391726121344986       0.46696619071437490     
         129           1   11.152331720218598        10.401141241228030       0.46696619071437490     
         130           1   10.580417273027900        11.391726121344986       0.46696619071437490     
         131           1   12.296160614599991        10.401141241228030       0.46696619071437490     
         132           1   11.724246167409294        11.391726121344986       0.46696619071437490     
         133           1  0.28595722359534864       0.82548740009746269        1.4008985721431246     
         134           1  0.85787167078604587        1.8160722802144180        1.4008985721431246     
         135           1   1.4297861179767433       0.82548740009746269        1.4008985721431246     
         136           1   2.0017005651674404        1.8160722802144180        1.4008985721431246     
         137           1   2.5736150123581378       0.82548740009746269        1.4008985721431246     
         138           1   3.1455294595488352        1.8160722802144180        1.4008985721431246     
         139           1   3.7174439067395322       0.82548740009746269        1.4008985721431246     
         140           1   4.2893583539302300        1.8160722802144180        1.4008985721431246     
         141           1   4.8612728011209265       0.82548740009746269        1.4008985721431246     
         142           1   5.4331872483116239        1.8160722802144180        1.4008985721431246     
         143           1   6.0051016955023213       0.82548740009746269        1.4008985721431246     
         144           1   6.5770161426930187        1.8160722802144180        1.4008985721431246     
         145           1   7.1489305898837161       0.82548740009746269        1.4008985721431246     
         146           1   7.7208450370744135        1.8160722802144180        1.4008985721431246     
         147           1   8.2927594842651100       0.82548740009746269        1.4008985721431246     
         148           1   8.8646739314558083        1.8160722802144180        1.4008985721431246     
         149           1   9.4365883786465048       0.82548740009746269        1.4008985721431246     
         150           1   10.008502825837203        1.8160722802144180        1.4008985721431246     
         151           1   10.580417273027900       0.82548740009746269        1.4008985721431246     
         152           1   11.152331720218598        1.8160722802144180        1.4008985721431246     
         153           1   11.724246167409294       0.82548740009746269        1.4008985721431246     
         154           1   12.296160614599991        1.8160722802144180        1.4008985721431246     
         155           1  0.28595722359534864        2.8066571603313730        1.4008985721431246     
         156           1  0.85787167078604587        3.7972420404483285        1.4008985721431246     
         157           1   1.4297861179767433        2.8066571603313730        1.4008985721431246     
         158           1   2.0017005651674404        3.7972420404483285        1.4008985721431246     
         159           1   2.5736150123581378        2.8066571603313730        1.4008985721431246     
         160           1   3.1455294595488352        3.7972420404483285        1.4008985721431246     
         161           1   3.7174439067395322        2.8066571603313730        1.4008985721431246     
         162           1   4.2893583539302300        3.7972420404483285        1.4008985721431246     
         163           1   4.8612728011209265        2.8066571603313730        1.4008985721431246     
         164           1   5.4331872483116239        3.7972420404483285        1.4008985721431246     
         165           1   6.0051016955023213        2.8066571603313730        1.4008985721431246     
         166           1   6.5770161426930187        3.7972420404483285        1.4008985721431246     
         167           1   7.1489305898837161        2.8066571603313730        1.4008985721431246     
         168           1   7.7208450370744135        3.7972420404483285        1.4008985721431246     
         169           1   8.2927594842651100        2.8066571603313730        1.4008985721431246     
         170           1   8.8646739314558083        3.7972420404483285        1.4008985721431246     
         171           1   9.4365883786465048        2.8066571603313730        1.4008985721431246     
         172           1   10.008502825837203        3.7972420404483285        1.4008985721431246     
         173           1   10.580417273027900        2.8066571603313730        1.4008985721431246     
         174           1   11.152331720218598        3.7972420404483285        1.4008985721431246     
         175           1   11.724246167409294        2.8066571603313730        1.4008985721431246     
         176           1   12.296160614599991        3.7972420404483285        1.4008985721431246     
         177           1  0.28595722359534864        4.7878269205652835        1.4008985721431246     
         178           1  0.85787167078604587        5.7784118006822389        1.4008985721431246     
         179           1   1.4297861179767433        4.7878269205652835        1.4008985721431246     
         180           1   2.0017005651674404        5.7784118006822389        1.4008985721431246     
         181           1   2.5736150123581378        4.7878269205652835        1.4008985721431246     
         182           1   3.1455294595488352        5.7784118006822389        1.4008985721431246     
         183           1   3.7174439067395322        4.7878269205652835        1.4008985721431246     
         184           1   4.2893583539302300        5.7784118006822389        1.4008985721431246     
         185           1   4.8612728011209265        4.7878269205652835        1.4008985721431246     
         186           1   5.4331872483116239        5.7784118006822389        1.4008985721431246     
         187           1   6.0051016955023213        4.7878269205652835        1.4008985721431246     
         188           1   6.5770161426930187        5.7784118006822389        1.4008985721431246     
         189           1   7.1489305898837161        4.7878269205652835        1.4008985721431246     
         190           1   7.7208450370744135        5.7784118006822389        1.4008985721431246     
         191           1   8.2927594842651100        4.7878269205652835        1.4008985721431246     
         192           1   8.8646739314558083        5.7784118006822389        1.4008985721431246     
         193           1   9.4365883786465048        4.7878269205652835        1.4008985721431246     
         194           1   10.008502825837203        5.7784118006822389        1.4008985721431246     
         195           1   10.580417273027900        4.7878269205652835        1.4008985721431246     
         196           1   11.152331720218598        5.7784118006822389        1.4008985721431246     
         197           1   11.724246167409294        4.7878269205652835        1.4008985721431246     
         198           1   12.296160614599991        5.7784118006822389        1.4008985721431246     
         199           1  0.28595722359534864        6.7689966807991944        1.4008985721431246     
         200           1  0.85787167078604587        7.7595815609161489        1.4008985721431246     
         201           1   1.4297861179767433        6.7689966807991944        1.4008985721431246     
         202           1   2.0017005651674404        7.7595815609161489        1.4008985721431246     
         203           1   2.5736150123581378        6.7689966807991944        1.4008985721431246     
         204           1   3.1455294595488352        7.7595815609161489        1.4008985721431246     
         205           1   3.7174439067395322        6.7689966807991944        1.4008985721431246     
         206           1   4.2893583539302300        7.7595815609161489        1.4008985721431246     
         207           1   4.8612728011209265        6.7689966807991944        1.4008985721431246     
         208           1   5.4331872483116239        7.7595815609161489        1.4008985721431246     
         209           1   6.0051016955023213        6.7689966807991944        1.4008985721431246     
         210           1   6.5770161426930187        7.7595815609161489        1.4008985721431246     
         211           1   7.1489305898837161        6.7689966807991944        1.4008985721431246     
         212           1   7.7208450370744135        7.7595815609161489        1.4008985721431246     
         213           1   8.2927594842651100        6.7689966807991944        1.4008985721431246     
         214           1   8.8646739314558083        7.7595815609161489        1.4008985721431246     
         215           1   9.4365883786465048        6.7689966807991944        1.4008985721431246     
         216           1   10.008502825837203        7.7595815609161489        1.4008985721431246     
         217           1   10.580417273027900        6.7689966807991944        1.4008985721431246     
         218           1   11.152331720218598        7.7595815609161489        1.4008985721431246     
         219           1   11.724246167409294        6.7689966807991944        1.4008985721431246     
         220           1   12.296160614599991        7.7595815609161489        1.4008985721431246     
         221           1  0.28595722359534864        8.7501664410331053        1.4008985721431246     
         222           1  0.85787167078604587        9.7407513211500589        1.4008985721431246     
         223           1   1.4297861179767433        8.7501664410331053        1.4008985721431246     
         224           1   2.0017005651674404        9.7407513211500589        1.4008985721431246     
         225           1   2.5736150123581378        8.7501664410331053        1.4008985721431246     
         226           1   3.1455294595488352        9.7407513211500589        1.4008985721431246     
         227           1   3.7174439067395322        8.7501664410331053        1.4008985721431246     
         228           1   4.2893583539302300        9.7407513211500589        1.4008985721431246     
         229           1   4.8612728011209265        8.7501664410331053        1.4008985721431246     
         230           1   5.4331872483116239        9.7407513211500589        1.4008985721431246     
         231           1   6.0051016955023213        8.7501664410331053        1.4008985721431246     
         232           1   6.5770161426930187        9.7407513211500589        1.4008985721431246     
         233           1   7.1489305898837161        8.7501664410331053        1.4008985721431246     
         234           1   7.7208450370744135        9.7407513211500589        1.4008985721431246     
         235           1   8.2927594842651100        8.7501664410331053        1.4008985721431246     
         236           1   8.8646739314558083        9.7407513211500589        1.4008985721431246     
         237           1   9.4365883786465048        8.7501664410331053        1.4008985721431246     
         238           1   10.008502825837203        9.7407513211500589        1.4008985721431246     
         239           1   10.580417273027900        8.7501664410331053        1.4008985721431246     
         240           1   11.152331720218598        9.7407513211500589        1.4008985721431246     
         241           1   11.724246167409294        8.7501664410331053        1.4008985721431246     
         242           1   12.296160614599991        9.7407513211500589        1.4008985721431246     
         243           1  0.28595722359534864        10.731336201267014        1.4008985721431246     
         244           1  0.85787167078604587        11.721921081383970        1.4008985721431246     
         245           1   1.4297861179767433        10.731336201267014        1.4008985721431246     
         246           1   2.0017005651674404        11.721921081383970        1.4008985721431246     
         247           1   2.5736150123581378        10.731336201267014        1.4008985721431246     
         248           1   3.1455294595488352        11.721921081383970        1.4008985721431246     
         249           1   3.7174439067395322        10.731336201267014        1.4008985721431246     
         250           1   4.2893583539302300        11.721921081383970        1.4008985721431246     
         251           1   4.8612728011209265        10.731336201267014        1.4008985721431246     
         252           1   5.4331872483116239        11.721921081383970        1.4008985721431246     
         253           1   6.0051016955023213        10.731336201267014        1.4008985721431246     
         254           1   6.5770161426930187        11.721921081383970        1.4008985721431246     
         255           1   7.1489305898837161        10.731336201267014        1.4008985721431246     
         256           1   7.7208450370744135        11.721921081383970        1.4008985721431246     
         257           1   8.2927594842651100        10.731336201267014        1.4008985721431246     
         258           1   8.8646739314558083        11.721921081383970        1.4008985721431246     
         259           1   9.4365883786465048        10.731336201267014        1.4008985721431246     
         260           1   10.008502825837203        11.721921081383970        1.4008985721431246     
         261           1   10.580417273027900        10.731336201267014        1.4008985721431246     
         262           1   11.152331720218598        11.721921081383970        1.4008985721431246     
         263           1   11.724246167409294        10.731336201267014        1.4008985721431246     
         264           1   12.296160614599991        11.721921081383970        1.4008985721431246     
         265           1  0.28595722359534864       0.16509748001949254        2.3348309535718745     
         266           1  0.85787167078604587        1.1556823601364479        2.3348309535718745     
         267           1   1.4297861179767433       0.16509748001949254        2.3348309535718745     
         268           1   2.0017005651674404        1.1556823601364479        2.3348309535718745     
         269           1   2.5736150123581378       0.16509748001949254        2.3348309535718745     
         270           1   3.1455294595488352        1.1556823601364479        2.3348309535718745     
         271           1   3.7174439067395322       0.16509748001949254        2.3348309535718745     
         272           1   4.2893583539302300        1.1556823601364479        2.3348309535718745     
         273           1   4.8612728011209265       0.16509748001949254        2.3348309535718745     
         274           1   5.4331872483116239        1.1556823601364479        2.3348309535718745     
         275           1   6.0051016955023213       0.16509748001949254        2.3348309535718745     
         276           1   6.5770161426930187        1.1556823601364479        2.3348309535718745     
         277           1   7.1489305898837161       0.16509748001949254        2.3348309535718745     
         278           1   7.7208450370744135        1.1556823601364479        2.3348309535718745     
         279           1   8.2927594842651100       0.16509748001949254        2.3348309535718745     
         280           1   8.8646739314558083        1.1556823601364479        2.3348309535718745     
         281           1   9.4365883786465048       0.16509748001949254        2.3348309535718745     
         282           1   10.008502825837203        1.1556823601364479        2.3348309535718745     
         283           1   10.580417273027900       0.16509748001949254        2.3348309535718745     
         284           1   11.152331720218598        1.1556823601364479        2.3348309535718745     
         285           1   11.724246167409294       0.16509748001949254        2.3348309535718745     
         286           1   12.296160614599991        1.1556823601364479        2.3348309535718745     
         287           1  0.28595722359534864        2.1462672402534029        2.3348309535718745     
         288           1  0.85787167078604587        3.1368521203703583        2.3348309535718745     