 LAMMPS lj fcc 111 crystal

        5184 atoms
           1 atom types

   0.00000000       13.447169879748136      xlo xhi
   0.00000000       14.262877514606096      ylo yhi
   0.00000000       26.894339759496265      zlo zhi

 Atoms

           1           1  0.84044811748425841       0.39619104207239153       0.28014937249475280     
           2           1   1.9610456074632696       0.39619104207239153       0.28014937249475280     
           3           1   3.0816430974422806       0.39619104207239153       0.28014937249475280     
           4           1   4.2022405874212918       0.39619104207239153       0.28014937249475280     
           5           1   5.3228380774003030       0.39619104207239153       0.28014937249475280     
           6           1   6.4434355673793142       0.39619104207239153       0.28014937249475280     
           7           1   7.5640330573583254       0.39619104207239153       0.28014937249475280     
           8           1   8.6846305473373366       0.39619104207239153       0.28014937249475280     
           9           1   9.8052280373163487       0.39619104207239153       0.28014937249475280     
          10           1   10.925825527295359       0.39619104207239153       0.28014937249475280     
          11           1   12.046423017274371       0.39619104207239153       0.28014937249475280     
          12           1   13.167020507253381       0.39619104207239153       0.28014937249475280     
          13           1  0.84044811748425841        1.9809552103619577       0.28014937249475280     
          14           1   1.9610456074632696        1.9809552103619577       0.28014937249475280     
          15           1   3.0816430974422806        1.9809552103619577       0.28014937249475280     
          16           1   4.2022405874212918        1.9809552103619577       0.28014937249475280     
          17           1   5.3228380774003030        1.9809552103619577       0.28014937249475280     
          18           1   6.4434355673793142        1.9809552103619577       0.28014937249475280     
          19           1   7.5640330573583254        1.9809552103619577       0.28014937249475280     
          20           1   8.6846305473373366        1.9809552103619577       0.28014937249475280     
          21           1   9.8052280373163487        1.9809552103619577       0.28014937249475280     
          22           1   10.925825527295359        1.9809552103619577       0.28014937249475280     
          23           1   12.046423017274371        1.9809552103619577       0.28014937249475280     
          24           1   13.167020507253381        1.9809552103619577       0.28014937249475280     
          25           1  0.84044811748425841        3.5657193786515240       0.28014937249475280     
          26           1   1.9610456074632696        3.5657193786515240       0.28014937249475280     
          27           1   3.0816430974422806        3.5657193786515240       0.28014937249475280     
          28           1   4.2022405874212918        3.5657193786515240       0.28014937249475280     
          29           1   5.3228380774003030        3.5657193786515240       0.28014937249475280     
          30           1   6.4434355673793142        3.5657193786515240       0.28014937249475280     
          31           1   7.5640330573583254        3.5657193786515240       0.28014937249475280     
          32           1   8.6846305473373366        3.5657193786515240       0.28014937249475280     
          33           1   9.8052280373163487        3.5657193786515240       0.28014937249475280     
          34           1   10.925825527295359        3.5657193786515240       0.28014937249475280     
          35           1   12.046423017274371        3.5657193786515240       0.28014937249475280     
          36           1   13.167020507253381        3.5657193786515240       0.28014937249475280     
          37           1  0.84044811748425841        5.1504835469410901       0.28014937249475280     
          38           1   1.9610456074632696        5.1504835469410901       0.28014937249475280     
          39           1   3.0816430974422806        5.1504835469410901       0.28014937249475280     
          40           1   4.2022405874212918        5.1504835469410901       0.28014937249475280     
          41           1   5.3228380774003030        5.1504835469410901       0.28014937249475280     
          42           1   6.4434355673793142        5.1504835469410901       0.28014937249475280     
          43           1   7.5640330573583254        5.1504835469410901       0.28014937249475280     
          44           1   8.6846305473373366        5.1504835469410901       0.28014937249475280     
          45           1   9.8052280373163487        5.1504835469410901       0.28014937249475280     
          46           1   10.925825527295359        5.1504835469410901       0.28014937249475280     
          47           1   12.046423017274371        5.1504835469410901       0.28014937249475280     
          48           1   13.167020507253381        5.1504835469410901       0.28014937249475280     
          49           1  0.84044811748425841        6.7352477152306562       0.28014937249475280     
          50           1   1.9610456074632696        6.7352477152306562       0.28014937249475280     
          51           1   3.0816430974422806        6.7352477152306562       0.28014937249475280     
          52           1   4.2022405874212918        6.7352477152306562       0.28014937249475280     
          53           1   5.3228380774003030        6.7352477152306562       0.28014937249475280     
          54           1   6.4434355673793142        6.7352477152306562       0.28014937249475280     
          55           1   7.5640330573583254        6.7352477152306562       0.28014937249475280     
          56           1   8.6846305473373366        6.7352477152306562       0.28014937249475280     
          57           1   9.8052280373163487        6.7352477152306562       0.28014937249475280     
          58           1   10.925825527295359        6.7352477152306562       0.28014937249475280     
          59           1   12.046423017274371        6.7352477152306562       0.28014937249475280     
          60           1   13.167020507253381        6.7352477152306562       0.28014937249475280     
          61           1  0.84044811748425841        8.3200118835202215       0.28014937249475280     
          62           1   1.9610456074632696        8.3200118835202215       0.28014937249475280     
          63           1   3.0816430974422806        8.3200118835202215       0.28014937249475280     
          64           1   4.2022405874212918        8.3200118835202215       0.28014937249475280     
          65           1   5.3228380774003030        8.3200118835202215       0.28014937249475280     
          66           1   6.4434355673793142        8.3200118835202215       0.28014937249475280     
          67           1   7.5640330573583254        8.3200118835202215       0.28014937249475280     
          68           1   8.6846305473373366        8.3200118835202215       0.28014937249475280     
          69           1   9.8052280373163487        8.3200118835202215       0.28014937249475280     
          70           1   10.925825527295359        8.3200118835202215       0.28014937249475280     
          71           1   12.046423017274371        8.3200118835202215       0.28014937249475280     
          72           1   13.167020507253381        8.3200118835202215       0.28014937249475280     
          73           1  0.84044811748425841        9.9047760518097885       0.28014937249475280     
          74           1   1.9610456074632696        9.9047760518097885       0.28014937249475280     
          75           1   3.0816430974422806        9.9047760518097885       0.28014937249475280     
          76           1   4.2022405874212918        9.9047760518097885       0.28014937249475280     
          77           1   5.3228380774003030        9.9047760518097885       0.28014937249475280     
          78           1   6.4434355673793142        9.9047760518097885       0.28014937249475280     
          79           1   7.5640330573583254        9.9047760518097885       0.28014937249475280     
          80           1   8.6846305473373366        9.9047760518097885       0.28014937249475280     
          81           1   9.8052280373163487        9.9047760518097885       0.28014937249475280     
          82           1   10.925825527295359        9.9047760518097885       0.28014937249475280     
          83           1   12.046423017274371        9.9047760518097885       0.28014937249475280     
          84           1   13.167020507253381        9.9047760518097885       0.28014937249475280     
          85           1  0.84044811748425841        11.489540220099354       0.28014937249475280     
          86           1   1.9610456074632696        11.489540220099354       0.28014937249475280     
          87           1   3.0816430974422806        11.489540220099354       0.28014937249475280     
          88           1   4.2022405874212918        11.489540220099354       0.28014937249475280     
          89           1   5.3228380774003030        11.489540220099354       0.28014937249475280     
          90           1   6.4434355673793142        11.489540220099354       0.28014937249475280     
          91           1   7.5640330573583254        11.489540220099354       0.28014937249475280     
          92           1   8.6846305473373366        11.489540220099354       0.28014937249475280     
          93           1   9.8052280373163487        11.489540220099354       0.28014937249475280     
          94           1   10.925825527295359        11.489540220099354       0.28014937249475280     
          95           1   12.046423017274371        11.489540220099354       0.28014937249475280     
          96           1   13.167020507253381        11.489540220099354       0.28014937249475280     
          97           1  0.84044811748425841        13.074304388388921       0.28014937249475280     
          98           1   1.9610456074632696        13.074304388388921       0.28014937249475280     
          99           1   3.0816430974422806        13.074304388388921       0.28014937249475280     
         100           1   4.2022405874212918        13.074304388388921       0.28014937249475280     
         101           1   5.3228380774003030        13.074304388388921       0.28014937249475280     
         102           1   6.4434355673793142        13.074304388388921       0.28014937249475280     
         103           1   7.5640330573583254        13.074304388388921       0.28014937249475280     
         104           1   8.6846305473373366        13.074304388388921       0.28014937249475280     
         105           1   9.8052280373163487        13.074304388388921       0.28014937249475280     
         106           1   10.925825527295359        13.074304388388921       0.28014937249475280     
         107           1   12.046423017274371        13.074304388388921       0.28014937249475280     
         108           1   13.167020507253381        13.074304388388921       0.28014937249475280     
         109           1  0.28014937249475280        1.1885731262171746       0.84044811748425841     
         110           1   1.4007468624737640        1.1885731262171746       0.84044811748425841     
         111           1   2.5213443524527754        1.1885731262171746       0.84044811748425841     
         112           1   3.6419418424317866        1.1885731262171746       0.84044811748425841     
         113           1   4.7625393324107979        1.1885731262171746       0.84044811748425841     
         114           1   5.8831368223898091        1.1885731262171746       0.84044811748425841     
         115           1   7.0037343123688203        1.1885731262171746       0.84044811748425841     
         116           1   8.1243318023478306        1.1885731262171746       0.84044811748425841     
         117           1   9.2449292923268427        1.1885731262171746       0.84044811748425841     
         118           1   10.365526782305853        1.1885731262171746       0.84044811748425841     
         119           1   11.486124272284865        1.1885731262171746       0.84044811748425841     
         120           1   12.606721762263875        1.1885731262171746       0.84044811748425841     
         121           1  0.28014937249475280        2.7733372945067405       0.84044811748425841     
         122           1   1.4007468624737640        2.7733372945067405       0.84044811748425841     
         123           1   2.5213443524527754        2.7733372945067405       0.84044811748425841     
         124           1   3.6419418424317866        2.7733372945067405       0.84044811748425841     
         125           1   4.7625393324107979        2.7733372945067405       0.84044811748425841     
         126           1   5.8831368223898091        2.7733372945067405       0.84044811748425841     
         127           1   7.0037343123688203        2.7733372945067405       0.84044811748425841     
         128           1   8.1243318023478306        2.7733372945067405       0.84044811748425841     
         129           1   9.2449292923268427        2.7733372945067405       0.84044811748425841     
         130           1   10.365526782305853        2.7733372945067405       0.84044811748425841     
         131           1   11.486124272284865        2.7733372945067405       0.84044811748425841     
         132           1   12.606721762263875        2.7733372945067405       0.84044811748425841     
         133           1  0.28014937249475280        4.3581014627963066       0.84044811748425841     
         134           1   1.4007468624737640        4.3581014627963066       0.84044811748425841     
         135           1   2.5213443524527754        4.3581014627963066       0.84044811748425841     
         136           1   3.6419418424317866        4.3581014627963066       0.84044811748425841     
         137           1   4.7625393324107979        4.3581014627963066       0.84044811748425841     
         138           1   5.8831368223898091        4.3581014627963066       0.84044811748425841     
         139           1   7.0037343123688203        4.3581014627963066       0.84044811748425841     
         140           1   8.1243318023478306        4.3581014627963066       0.84044811748425841     
         141           1   9.2449292923268427        4.3581014627963066       0.84044811748425841     
         142           1   10.365526782305853        4.3581014627963066       0.84044811748425841     
         143           1   11.486124272284865        4.3581014627963066       0.84044811748425841     
         144           1   12.606721762263875        4.3581014627963066       0.84044811748425841     
         145           1  0.28014937249475280        5.9428656310858727       0.84044811748425841     
         146           1   1.4007468624737640        5.9428656310858727       0.84044811748425841     
         147           1   2.5213443524527754        5.9428656310858727       0.84044811748425841     
         148           1   3.6419418424317866        5.9428656310858727       0.84044811748425841     
         149           1   4.7625393324107979        5.9428656310858727       0.84044811748425841     
         150           1   5.8831368223898091        5.9428656310858727       0.84044811748425841     
         151           1   7.0037343123688203        5.9428656310858727       0.84044811748425841     
         152           1   8.1243318023478306        5.9428656310858727       0.84044811748425841     
         153           1   9.2449292923268427        5.9428656310858727       0.84044811748425841     
         154           1   10.365526782305853        5.9428656310858727       0.84044811748425841     
         155           1   11.486124272284865        5.9428656310858727       0.84044811748425841     
         156           1   12.606721762263875        5.9428656310858727       0.84044811748425841     
         157           1  0.28014937249475280        7.5276297993754389       0.84044811748425841     
         158           1   1.4007468624737640        7.5276297993754389       0.84044811748425841     
         159           1   2.5213443524527754        7.5276297993754389       0.84044811748425841     
         160           1   3.6419418424317866        7.5276297993754389       0.84044811748425841     
         161           1   4.7625393324107979        7.5276297993754389       0.84044811748425841     
         162           1   5.8831368223898091        7.5276297993754389       0.84044811748425841     
         163           1   7.0037343123688203        7.5276297993754389       0.84044811748425841     
         164           1   8.1243318023478306        7.5276297993754389       0.84044811748425841     
         165           1   9.2449292923268427        7.5276297993754389       0.84044811748425841     
         166           1   10.365526782305853        7.5276297993754389       0.84044811748425841     
         167           1   11.486124272284865        7.5276297993754389       0.84044811748425841     
         168           1   12.606721762263875        7.5276297993754389       0.84044811748425841     
         169           1  0.28014937249475280        9.1123939676650050       0.84044811748425841     
         170           1   1.4007468624737640        9.1123939676650050       0.84044811748425841     
         171           1   2.5213443524527754        9.1123939676650050       0.84044811748425841     
         172           1   3.6419418424317866        9.1123939676650050       0.84044811748425841     
         173           1   4.7625393324107979        9.1123939676650050       0.84044811748425841     
         174           1   5.8831368223898091        9.1123939676650050       0.84044811748425841     
         175           1   7.0037343123688203        9.1123939676650050       0.84044811748425841     
         176           1   8.1243318023478306        9.1123939676650050       0.84044811748425841     
         177           1   9.2449292923268427        9.1123939676650050       0.84044811748425841     
         178           1   10.365526782305853        9.1123939676650050       0.84044811748425841     
         179           1   11.486124272284865        9.1123939676650050       0.84044811748425841     
         180           1   12.606721762263875        9.1123939676650050       0.84044811748425841     
         181           1  0.28014937249475280        10.697158135954572       0.84044811748425841     
         182           1   1.4007468624737640        10.697158135954572       0.84044811748425841     
         183           1   2.5213443524527754        10.697158135954572       0.84044811748425841     
         184           1   3.6419418424317866        10.697158135954572       0.84044811748425841     
         185           1   4.7625393324107979        10.697158135954572       0.84044811748425841     
         186           1   5.8831368223898091        10.697158135954572       0.84044811748425841     
         187           1   7.0037343123688203        10.697158135954572       0.84044811748425841     
         188           1   8.1243318023478306        10.697158135954572       0.84044811748425841     
         189           1   9.2449292923268427        10.697158135954572       0.84044811748425841     
         190           1   10.365526782305853        10.697158135954572       0.84044811748425841     
         191           1   11.486124272284865        10.697158135954572       0.84044811748425841     
         192           1   12.606721762263875        10.697158135954572       0.84044811748425841     
         193           1  0.28014937249475280        12.281922304244137       0.84044811748425841     
         194           1   1.4007468624737640        12.281922304244137       0.84044811748425841     
         195           1   2.5213443524527754        12.281922304244137       0.84044811748425841     
         196           1   3.6419418424317866        12.281922304244137       0.84044811748425841     
         197           1   4.7625393324107979        12.281922304244137       0.84044811748425841     
         198           1   5.8831368223898091        12.281922304244137       0.84044811748425841     
         199           1   7.0037343123688203        12.281922304244137       0.84044811748425841     
         200           1   8.1243318023478306        12.281922304244137       0.84044811748425841     
         201           1   9.2449292923268427        12.281922304244137       0.84044811748425841     
         202           1   10.365526782305853        12.281922304244137       0.84044811748425841     
         203           1   11.486124272284865        12.281922304244137       0.84044811748425841     
         204           1   12.606721762263875        12.281922304244137       0.84044811748425841     
         205           1  0.28014937249475280        13.866686472533704       0.84044811748425841     
         206           1   1.4007468624737640        13.866686472533704       0.84044811748425841     
         207           1   2.5213443524527754        13.866686472533704       0.84044811748425841     
         208           1   3.6419418424317866        13.866686472533704       0.84044811748425841     
         209           1   4.7625393324107979        13.866686472533704       0.84044811748425841     
         210           1   5.8831368223898091        13.866686472533704       0.84044811748425841     
         211           1   7.0037343123688203        13.866686472533704       0.84044811748425841     
         212           1   8.1243318023478306        13.866686472533704       0.84044811748425841     
         213           1   9.2449292923268427        13.866686472533704       0.84044811748425841     
         214           1   10.365526782305853        13.866686472533704       0.84044811748425841     
         215           1   11.486124272284865        13.866686472533704       0.84044811748425841     
         216           1   12.606721762263875        13.866686472533704       0.84044811748425841     
         217           1  0.84044811748425841       0.39619104207239153        1.4007468624737640     
         218           1   1.9610456074632696       0.39619104207239153        1.4007468624737640     
         219           1   3.0816430974422806       0.39619104207239153        1.4007468624737640     
         220           1   4.2022405874212918       0.39619104207239153        1.4007468624737640     
         221           1   5.3228380774003030       0.39619104207239153        1.4007468624737640     
         222           1   6.4434355673793142       0.39619104207239153        1.4007468624737640     
         223           1   7.5640330573583254       0.39619104207239153        1.4007468624737640     
         224           1   8.6846305473373366       0.39619104207239153        1.4007468624737640     
         225           1   9.8052280373163487       0.39619104207239153        1.4007468624737640     
         226           1   10.925825527295359       0.39619104207239153        1.4007468624737640     
         227           1   12.046423017274371       0.39619104207239153        1.4007468624737640     
         228           1   13.167020507253381       0.39619104207239153        1.4007468624737640     
         229           1  0.84044811748425841        1.9809552103619577        1.4007468624737640     
         230           1   1.9610456074632696        1.9809552103619577        1.4007468624737640     
         231           1   3.0816430974422806        1.9809552103619577        1.4007468624737640     
         232           1   4.2022405874212918        1.9809552103619577        1.4007468624737640     
         233           1   5.3228380774003030        1.9809552103619577        1.4007468624737640     
         234           1   6.4434355673793142        1.9809552103619577        1.4007468624737640     
         235           1   7.5640330573583254        1.9809552103619577        1.4007468624737640     
         236           1   8.6846305473373366        1.9809552103619577        1.4007468624737640     
         237           1   9.8052280373163487        1.9809552103619577        1.4007468624737640     
         238           1   10.925825527295359        1.9809552103619577        1.4007468624737640     
         239           1   12.046423017274371        1.9809552103619577        1.4007468624737640     
         240           1   13.167020507253381        1.9809552103619577        1.4007468624737640     
         241           1  0.84044811748425841        3.5657193786515240        1.4007468624737640     
         242           1   1.9610456074632696        3.5657193786515240        1.4007468624737640     
         243           1   3.0816430974422806        3.5657193786515240        1.4007468624737640     
         244           1   4.2022405874212918        3.5657193786515240        1.4007468624737640     
         245           1   5.3228380774003030        3.5657193786515240        1.4007468624737640     
         246           1   6.4434355673793142        3.5657193786515240        1.4007468624737640     
         247           1   7.5640330573583254        3.5657193786515240        1.4007468624737640     
         248           1   8.6846305473373366        3.5657193786515240        1.4007468624737640     
         249           1   9.8052280373163487        3.5657193786515240        1.4007468624737640     
         250           1   10.925825527295359        3.5657193786515240        1.4007468624737640     
         251           1   12.046423017274371        3.5657193786515240        1.4007468624737640     
         252           1   13.167020507253381        3.5657193786515240        1.4007468624737640     
         253           1  0.84044811748425841        5.1504835469410901        1.4007468624737640     
         254           1   1.9610456074632696        5.1504835469410901        1.4007468624737640     
         255           1   3.0816430974422806        5.1504835469410901        1.4007468624737640     
         256           1   4.2022405874212918        5.1504835469410901        1.4007468624737640     
         257           1   5.3228380774003030        5.1504835469410901        1.4007468624737640     
         258           1   6.4434355673793142        5.1504835469410901        1.4007468624737640     
         259           1   7.5640330573583254        5.1504835469410901        1.4007468624737640     
         260           1   8.6846305473373366        5.1504835469410901        1.4007468624737640     
         261           1   9.8052280373163487        5.1504835469410901        1.4007468624737640     
         262           1   10.925825527295359        5.1504835469410901        1.4007468624737640     
         263           1   12.046423017274371        5.1504835469410901        1.4007468624737640     
         264           1   13.167020507253381        5.1504835469410901        1.4007468624737640     
         265           1  0.84044811748425841        6.7352477152306562        1.4007468624737640     
         266           1   1.9610456074632696        6.7352477152306562        1.4007468624737640     
         267           1   3.0816430974422806        6.7352477152306562        1.4007468624737640     
         268           1   4.2022405874212918        6.7352477152306562        1.4007468624737640     
         269           1   5.3228380774003030        6.7352477152306562        1.4007468624737640     
         270           1   6.4434355673793142        6.7352477152306562        1.4007468624737640     
         271           1   7.5640330573583254        6.7352477152306562        1.4007468624737640     
         272           1   8.6846305473373366        6.7352477152306562        1.4007468624737640     
         273           1   9.8052280373163487        6.7352477152306562        1.4007468624737640     
         274           1   10.925825527295359        6.7352477152306562        1.4007468624737640     
         275           1   12.046423017274371        6.7352477152306562        1.4007468624737640     
         276           1   13.167020507253381        6.7352477152306562        1.4007468624737640     
         277           1  0.84044811748425841        8.3200118835202215        1.4007468624737640     
         278           1   1.9610456074632696        8.3200118835202215        1.4007468624737640     
         279           1   3.0816430974422806        8.3200118835202215        1.4007468624737640     
         280           1   4.2022405874212918        8.3200118835202215        1.4007468624737640     
         281           1   5.3228380774003030        8.3200118835202215        1.4007468624737640     
         282           1   6.4434355673793142        8.3200118835202215        1.4007468624737640     
         283           1   7.5640330573583254        8.3200118835202215        1.4007468624737640     
         284           1   8.6846305473373366        8.3200118835202215        1.4007468624737640     
         285           1   9.8052280373163487        8.3200118835202215        1.4007468624737640     
         286           1   10.925825527295359        8.3200118835202215        1.4007468624737640     
         287           1   12.046423017274371        8.3200118835202215        1.4007468624737640     
         288           1   13.167020507253381        8.3200118835202215        1.4007468624737640     