 LAMMPS lj fcc 100 crystal

        6480 atoms
           1 atom types

   0.00000000       14.262877514606096      xlo xhi
   0.00000000       14.262877514606096      ylo yhi
   0.00000000       31.695283365791322      zlo zhi

 Atoms

           1           1  0.39619104207239153        1.1885731262171746       0.39619104207239153     
           2           1   1.1885731262171746       0.39619104207239153       0.39619104207239153     
           3           1   1.9809552103619577        1.1885731262171746       0.39619104207239153     
           4           1   2.7733372945067405       0.39619104207239153       0.39619104207239153     
           5           1   3.5657193786515240        1.1885731262171746       0.39619104207239153     
           6           1   4.3581014627963066       0.39619104207239153       0.39619104207239153     
           7           1   5.1504835469410901        1.1885731262171746       0.39619104207239153     
           8           1   5.9428656310858727       0.39619104207239153       0.39619104207239153     
           9           1   6.7352477152306562        1.1885731262171746       0.39619104207239153     
          10           1   7.5276297993754389       0.39619104207239153       0.39619104207239153     
          11           1   8.3200118835202215        1.1885731262171746       0.39619104207239153     
          12           1   9.1123939676650050       0.39619104207239153       0.39619104207239153     
          13           1   9.9047760518097885        1.1885731262171746       0.39619104207239153     
          14           1   10.697158135954572       0.39619104207239153       0.39619104207239153     
          15           1   11.489540220099354        1.1885731262171746       0.39619104207239153     
          16           1   12.281922304244137       0.39619104207239153       0.39619104207239153     
          17           1   13.074304388388921        1.1885731262171746       0.39619104207239153     
          18           1   13.866686472533704       0.39619104207239153       0.39619104207239153     
          19           1  0.39619104207239153        2.7733372945067405       0.39619104207239153     
          20           1   1.1885731262171746        1.9809552103619577       0.39619104207239153     
          21           1   1.9809552103619577        2.7733372945067405       0.39619104207239153     
          22           1   2.7733372945067405        1.9809552103619577       0.39619104207239153     
          23           1   3.5657193786515240        2.7733372945067405       0.39619104207239153     
          24           1   4.3581014627963066        1.9809552103619577       0.39619104207239153     
          25           1   5.1504835469410901        2.7733372945067405       0.39619104207239153     
          26           1   5.9428656310858727        1.9809552103619577       0.39619104207239153     
          27           1   6.7352477152306562        2.7733372945067405       0.39619104207239153     
          28           1   7.5276297993754389        1.9809552103619577       0.39619104207239153     
          29           1   8.3200118835202215        2.7733372945067405       0.39619104207239153     
          30           1   9.1123939676650050        1.9809552103619577       0.39619104207239153     
          31           1   9.9047760518097885        2.7733372945067405       0.39619104207239153     
          32           1   10.697158135954572        1.9809552103619577       0.39619104207239153     
          33           1   11.489540220099354        2.7733372945067405       0.39619104207239153     
          34           1   12.281922304244137        1.9809552103619577       0.39619104207239153     
          35           1   13.074304388388921        2.7733372945067405       0.39619104207239153     
          36           1   13.866686472533704        1.9809552103619577       0.39619104207239153     
          37           1  0.39619104207239153        4.3581014627963066       0.39619104207239153     
          38           1   1.1885731262171746        3.5657193786515240       0.39619104207239153     
          39           1   1.9809552103619577        4.3581014627963066       0.39619104207239153     
          40           1   2.7733372945067405        3.5657193786515240       0.39619104207239153     
          41           1   3.5657193786515240        4.3581014627963066       0.39619104207239153     
          42           1   4.3581014627963066        3.5657193786515240       0.39619104207239153     
          43           1   5.1504835469410901        4.3581014627963066       0.39619104207239153     
          44           1   5.9428656310858727        3.5657193786515240       0.39619104207239153     
          45           1   6.7352477152306562        4.3581014627963066       0.39619104207239153     
          46           1   7.5276297993754389        3.5657193786515240       0.39619104207239153     
          47           1   8.3200118835202215        4.3581014627963066       0.39619104207239153     
          48           1   9.1123939676650050        3.5657193786515240       0.39619104207239153     
          49           1   9.9047760518097885        4.3581014627963066       0.39619104207239153     
          50           1   10.697158135954572        3.5657193786515240       0.39619104207239153     
          51           1   11.489540220099354        4.3581014627963066       0.39619104207239153     
          52           1   12.281922304244137        3.5657193786515240       0.39619104207239153     
          53           1   13.074304388388921        4.3581014627963066       0.39619104207239153     
          54           1   13.866686472533704        3.5657193786515240       0.39619104207239153     
          55           1  0.39619104207239153        5.9428656310858727       0.39619104207239153     
          56           1   1.1885731262171746        5.1504835469410901       0.39619104207239153     
          57           1   1.9809552103619577        5.9428656310858727       0.39619104207239153     
          58           1   2.7733372945067405        5.1504835469410901       0.39619104207239153     
          59           1   3.5657193786515240        5.9428656310858727       0.39619104207239153     
          60           1   4.3581014627963066        5.1504835469410901       0.39619104207239153     
          61           1   5.1504835469410901        5.9428656310858727       0.39619104207239153     
          62           1   5.9428656310858727        5.1504835469410901       0.39619104207239153     
          63           1   6.7352477152306562        5.9428656310858727       0.39619104207239153     
          64           1   7.5276297993754389        5.1504835469410901       0.39619104207239153     
          65           1   8.3200118835202215        5.9428656310858727       0.39619104207239153     
          66           1   9.1123939676650050        5.1504835469410901       0.39619104207239153     
          67           1   9.9047760518097885        5.9428656310858727       0.39619104207239153     
          68           1   10.697158135954572        5.1504835469410901       0.39619104207239153     
          69           1   11.489540220099354        5.9428656310858727       0.39619104207239153     
          70           1   12.281922304244137        5.1504835469410901       0.39619104207239153     
          71           1   13.074304388388921        5.9428656310858727       0.39619104207239153     
          72           1   13.866686472533704        5.1504835469410901       0.39619104207239153     
          73           1  0.39619104207239153        7.5276297993754389       0.39619104207239153     
          74           1   1.1885731262171746        6.7352477152306562       0.39619104207239153     
          75           1   1.9809552103619577        7.5276297993754389       0.39619104207239153     
          76           1   2.7733372945067405        6.7352477152306562       0.39619104207239153     
          77           1   3.5657193786515240        7.5276297993754389       0.39619104207239153     
          78           1   4.3581014627963066        6.7352477152306562       0.39619104207239153     
          79           1   5.1504835469410901        7.5276297993754389       0.39619104207239153     
          80           1   5.9428656310858727        6.7352477152306562       0.39619104207239153     
          81           1   6.7352477152306562        7.5276297993754389       0.39619104207239153     
          82           1   7.5276297993754389        6.7352477152306562       0.39619104207239153     
          83           1   8.3200118835202215        7.5276297993754389       0.39619104207239153     
          84           1   9.1123939676650050        6.7352477152306562       0.39619104207239153     
          85           1   9.9047760518097885        7.5276297993754389       0.39619104207239153     
          86           1   10.697158135954572        6.7352477152306562       0.39619104207239153     
          87           1   11.489540220099354        7.5276297993754389       0.39619104207239153     
          88           1   12.281922304244137        6.7352477152306562       0.39619104207239153     
          89           1   13.074304388388921        7.5276297993754389       0.39619104207239153     
          90           1   13.866686472533704        6.7352477152306562       0.39619104207239153     
          91           1  0.39619104207239153        9.1123939676650050       0.39619104207239153     
          92           1   1.1885731262171746        8.3200118835202215       0.39619104207239153     
          93           1   1.9809552103619577        9.1123939676650050       0.39619104207239153     
          94           1   2.7733372945067405        8.3200118835202215       0.39619104207239153     
          95           1   3.5657193786515240        9.1123939676650050       0.39619104207239153     
          96           1   4.3581014627963066        8.3200118835202215       0.39619104207239153     
          97           1   5.1504835469410901        9.1123939676650050       0.39619104207239153     
          98           1   5.9428656310858727        8.3200118835202215       0.39619104207239153     
          99           1   6.7352477152306562        9.1123939676650050       0.39619104207239153     
         100           1   7.5276297993754389        8.3200118835202215       0.39619104207239153     
         101           1   8.3200118835202215        9.1123939676650050       0.39619104207239153     
         102           1   9.1123939676650050        8.3200118835202215       0.39619104207239153     
         103           1   9.9047760518097885        9.1123939676650050       0.39619104207239153     
         104           1   10.697158135954572        8.3200118835202215       0.39619104207239153     
         105           1   11.489540220099354        9.1123939676650050       0.39619104207239153     
         106           1   12.281922304244137        8.3200118835202215       0.39619104207239153     
         107           1   13.074304388388921        9.1123939676650050       0.39619104207239153     
         108           1   13.866686472533704        8.3200118835202215       0.39619104207239153     
         109           1  0.39619104207239153        10.697158135954572       0.39619104207239153     
         110           1   1.1885731262171746        9.9047760518097885       0.39619104207239153     
         111           1   1.9809552103619577        10.697158135954572       0.39619104207239153     
         112           1   2.7733372945067405        9.9047760518097885       0.39619104207239153     
         113           1   3.5657193786515240        10.697158135954572       0.39619104207239153     
         114           1   4.3581014627963066        9.9047760518097885       0.39619104207239153     
         115           1   5.1504835469410901        10.697158135954572       0.39619104207239153     
         116           1   5.9428656310858727        9.9047760518097885       0.39619104207239153     
         117           1   6.7352477152306562        10.697158135954572       0.39619104207239153     
         118           1   7.5276297993754389        9.9047760518097885       0.39619104207239153     
         119           1   8.3200118835202215        10.697158135954572       0.39619104207239153     
         120           1   9.1123939676650050        9.9047760518097885       0.39619104207239153     
         121           1   9.9047760518097885        10.697158135954572       0.39619104207239153     
         122           1   10.697158135954572        9.9047760518097885       0.39619104207239153     
         123           1   11.489540220099354        10.697158135954572       0.39619104207239153     
         124           1   12.281922304244137        9.9047760518097885       0.39619104207239153     
         125           1   13.074304388388921        10.697158135954572       0.39619104207239153     
         126           1   13.866686472533704        9.9047760518097885       0.39619104207239153     
         127           1  0.39619104207239153        12.281922304244137       0.39619104207239153     
         128           1   1.1885731262171746        11.489540220099354       0.39619104207239153     
         129           1   1.9809552103619577        12.281922304244137       0.39619104207239153     
         130           1   2.7733372945067405        11.489540220099354       0.39619104207239153     
         131           1   3.5657193786515240        12.281922304244137       0.39619104207239153     
         132           1   4.3581014627963066        11.489540220099354       0.39619104207239153     
         133           1   5.1504835469410901        12.281922304244137       0.39619104207239153     
         134           1   5.9428656310858727        11.489540220099354       0.39619104207239153     
         135           1   6.7352477152306562        12.281922304244137       0.39619104207239153     
         136           1   7.5276297993754389        11.489540220099354       0.39619104207239153     
         137           1   8.3200118835202215        12.281922304244137       0.39619104207239153     
         138           1   9.1123939676650050        11.489540220099354       0.39619104207239153     
         139           1   9.9047760518097885        12.281922304244137       0.39619104207239153     
         140           1   10.697158135954572        11.489540220099354       0.39619104207239153     
         141           1   11.489540220099354        12.281922304244137       0.39619104207239153     
         142           1   12.281922304244137        11.489540220099354       0.39619104207239153     
         143           1   13.074304388388921        12.281922304244137       0.39619104207239153     
         144           1   13.866686472533704        11.489540220099354       0.39619104207239153     
         145           1  0.39619104207239153        13.866686472533704       0.39619104207239153     
         146           1   1.1885731262171746        13.074304388388921       0.39619104207239153     
         147           1   1.9809552103619577        13.866686472533704       0.39619104207239153     
         148           1   2.7733372945067405        13.074304388388921       0.39619104207239153     
         149           1   3.5657193786515240        13.866686472533704       0.39619104207239153     
         150           1   4.3581014627963066        13.074304388388921       0.39619104207239153     
         151           1   5.1504835469410901        13.866686472533704       0.39619104207239153     
         152           1   5.9428656310858727        13.074304388388921       0.39619104207239153     
         153           1   6.7352477152306562        13.866686472533704       0.39619104207239153     
         154           1   7.5276297993754389        13.074304388388921       0.39619104207239153     
         155           1   8.3200118835202215        13.866686472533704       0.39619104207239153     
         156           1   9.1123939676650050        13.074304388388921       0.39619104207239153     
         157           1   9.9047760518097885        13.866686472533704       0.39619104207239153     
         158           1   10.697158135954572        13.074304388388921       0.39619104207239153     
         159           1   11.489540220099354        13.866686472533704       0.39619104207239153     
         160           1   12.281922304244137        13.074304388388921       0.39619104207239153     
         161           1   13.074304388388921        13.866686472533704       0.39619104207239153     
         162           1   13.866686472533704        13.074304388388921       0.39619104207239153     
         163           1  0.39619104207239153       0.39619104207239153        1.1885731262171746     
         164           1   1.1885731262171746        1.1885731262171746        1.1885731262171746     
         165           1   1.9809552103619577       0.39619104207239153        1.1885731262171746     
         166           1   2.7733372945067405        1.1885731262171746        1.1885731262171746     
         167           1   3.5657193786515240       0.39619104207239153        1.1885731262171746     
         168           1   4.3581014627963066        1.1885731262171746        1.1885731262171746     
         169           1   5.1504835469410901       0.39619104207239153        1.1885731262171746     
         170           1   5.9428656310858727        1.1885731262171746        1.1885731262171746     
         171           1   6.7352477152306562       0.39619104207239153        1.1885731262171746     
         172           1   7.5276297993754389        1.1885731262171746        1.1885731262171746     
         173           1   8.3200118835202215       0.39619104207239153        1.1885731262171746     
         174           1   9.1123939676650050        1.1885731262171746        1.1885731262171746     
         175           1   9.9047760518097885       0.39619104207239153        1.1885731262171746     
         176           1   10.697158135954572        1.1885731262171746        1.1885731262171746     
         177           1   11.489540220099354       0.39619104207239153        1.1885731262171746     
         178           1   12.281922304244137        1.1885731262171746        1.1885731262171746     
         179           1   13.074304388388921       0.39619104207239153        1.1885731262171746     
         180           1   13.866686472533704        1.1885731262171746        1.1885731262171746     
         181           1  0.39619104207239153        1.9809552103619577        1.1885731262171746     
         182           1   1.1885731262171746        2.7733372945067405        1.1885731262171746     
         183           1   1.9809552103619577        1.9809552103619577        1.1885731262171746     
         184           1   2.7733372945067405        2.7733372945067405        1.1885731262171746     
         185           1   3.5657193786515240        1.9809552103619577        1.1885731262171746     
         186           1   4.3581014627963066        2.7733372945067405        1.1885731262171746     
         187           1   5.1504835469410901        1.9809552103619577        1.1885731262171746     
         188           1   5.9428656310858727        2.7733372945067405        1.1885731262171746     
         189           1   6.7352477152306562        1.9809552103619577        1.1885731262171746     
         190           1   7.5276297993754389        2.7733372945067405        1.1885731262171746     
         191           1   8.3200118835202215        1.9809552103619577        1.1885731262171746     
         192           1   9.1123939676650050        2.7733372945067405        1.1885731262171746     
         193           1   9.9047760518097885        1.9809552103619577        1.1885731262171746     
         194           1   10.697158135954572        2.7733372945067405        1.1885731262171746     
         195           1   11.489540220099354        1.9809552103619577        1.1885731262171746     
         196           1   12.281922304244137        2.7733372945067405        1.1885731262171746     
         197           1   13.074304388388921        1.9809552103619577        1.1885731262171746     
         198           1   13.866686472533704        2.7733372945067405        1.1885731262171746     
         199           1  0.39619104207239153        3.5657193786515240        1.1885731262171746     
         200           1   1.1885731262171746        4.3581014627963066        1.1885731262171746     
         201           1   1.9809552103619577        3.5657193786515240        1.1885731262171746     
         202           1   2.7733372945067405        4.3581014627963066        1.1885731262171746     
         203           1   3.5657193786515240        3.5657193786515240        1.1885731262171746     
         204           1   4.3581014627963066        4.3581014627963066        1.1885731262171746     
         205           1   5.1504835469410901        3.5657193786515240        1.1885731262171746     
         206           1   5.9428656310858727        4.3581014627963066        1.1885731262171746     
         207           1   6.7352477152306562        3.5657193786515240        1.1885731262171746     
         208           1   7.5276297993754389        4.3581014627963066        1.1885731262171746     
         209           1   8.3200118835202215        3.5657193786515240        1.1885731262171746     
         210           1   9.1123939676650050        4.3581014627963066        1.1885731262171746     
         211           1   9.9047760518097885        3.5657193786515240        1.1885731262171746     
         212           1   10.697158135954572        4.3581014627963066        1.1885731262171746     
         213           1   11.489540220099354        3.5657193786515240        1.1885731262171746     
         214           1   12.281922304244137        4.3581014627963066        1.1885731262171746     
         215           1   13.074304388388921        3.5657193786515240        1.1885731262171746     
         216           1   13.866686472533704        4.3581014627963066        1.1885731262171746     
         217           1  0.39619104207239153        5.1504835469410901        1.1885731262171746     
         218           1   1.1885731262171746        5.9428656310858727        1.1885731262171746     
         219           1   1.9809552103619577        5.1504835469410901        1.1885731262171746     
         220           1   2.7733372945067405        5.9428656310858727        1.1885731262171746     
         221           1   3.5657193786515240        5.1504835469410901        1.1885731262171746     
         222           1   4.3581014627963066        5.9428656310858727        1.1885731262171746     
         223           1   5.1504835469410901        5.1504835469410901        1.1885731262171746     
         224           1   5.9428656310858727        5.9428656310858727        1.1885731262171746     
         225           1   6.7352477152306562        5.1504835469410901        1.1885731262171746     
         226           1   7.5276297993754389        5.9428656310858727        1.1885731262171746     
         227           1   8.3200118835202215        5.1504835469410901        1.1885731262171746     
         228           1   9.1123939676650050        5.9428656310858727        1.1885731262171746     
         229           1   9.9047760518097885        5.1504835469410901        1.1885731262171746     
         230           1   10.697158135954572        5.9428656310858727        1.1885731262171746     
         231           1   11.489540220099354        5.1504835469410901        1.1885731262171746     
         232           1   12.281922304244137        5.9428656310858727        1.1885731262171746     
         233           1   13.074304388388921        5.1504835469410901        1.1885731262171746     
         234           1   13.866686472533704        5.9428656310858727        1.1885731262171746     
         235           1  0.39619104207239153        6.7352477152306562        1.1885731262171746     
         236           1   1.1885731262171746        7.5276297993754389        1.1885731262171746     
         237           1   1.9809552103619577        6.7352477152306562        1.1885731262171746     
         238           1   2.7733372945067405        7.5276297993754389        1.1885731262171746     
         239           1   3.5657193786515240        6.7352477152306562        1.1885731262171746     
         240           1   4.3581014627963066        7.5276297993754389        1.1885731262171746     
         241           1   5.1504835469410901        6.7352477152306562        1.1885731262171746     
         242           1   5.9428656310858727        7.5276297993754389        1.1885731262171746     
         243           1   6.7352477152306562        6.7352477152306562        1.1885731262171746     
         244           1   7.5276297993754389        7.5276297993754389        1.1885731262171746     
         245           1   8.3200118835202215        6.7352477152306562        1.1885731262171746     
         246           1   9.1123939676650050        7.5276297993754389        1.1885731262171746     
         247           1   9.9047760518097885        6.7352477152306562        1.1885731262171746     
         248           1   10.697158135954572        7.5276297993754389        1.1885731262171746     
         249           1   11.489540220099354        6.7352477152306562        1.1885731262171746     
         250           1   12.281922304244137        7.5276297993754389        1.1885731262171746     
         251           1   13.074304388388921        6.7352477152306562        1.1885731262171746     
         252           1   13.866686472533704        7.5276297993754389        1.1885731262171746     
         253           1  0.39619104207239153        8.3200118835202215        1.1885731262171746     
         254           1   1.1885731262171746        9.1123939676650050        1.1885731262171746     
         255           1   1.9809552103619577        8.3200118835202215        1.1885731262171746     
         256           1   2.7733372945067405        9.1123939676650050        1.1885731262171746     
         257           1   3.5657193786515240        8.3200118835202215        1.1885731262171746     
         258           1   4.3581014627963066        9.1123939676650050        1.1885731262171746     
         259           1   5.1504835469410901        8.3200118835202215        1.1885731262171746     
         260           1   5.9428656310858727        9.1123939676650050        1.1885731262171746     
         261           1   6.7352477152306562        8.3200118835202215        1.1885731262171746     
         262           1   7.5276297993754389        9.1123939676650050        1.1885731262171746     
         263           1   8.3200118835202215        8.3200118835202215        1.1885731262171746     
         264           1   9.1123939676650050        9.1123939676650050        1.1885731262171746     
         265           1   9.9047760518097885        8.3200118835202215        1.1885731262171746     
         266           1   10.697158135954572        9.1123939676650050        1.1885731262171746     
         267           1   11.489540220099354        8.3200118835202215        1.1885731262171746     
         268           1   12.281922304244137        9.1123939676650050        1.1885731262171746     
         269           1   13.074304388388921        8.3200118835202215        1.1885731262171746     
         270           1   13.866686472533704        9.1123939676650050        1.1885731262171746     
         271           1  0.39619104207239153        9.9047760518097885        1.1885731262171746     
         272           1   1.1885731262171746        10.697158135954572        1.1885731262171746     
         273           1   1.9809552103619577        9.9047760518097885        1.1885731262171746     
         274           1   2.7733372945067405        10.697158135954572        1.1885731262171746     
         275           1   3.5657193786515240        9.9047760518097885        1.1885731262171746     
         276           1   4.3581014627963066        10.697158135954572        1.1885731262171746     
         277           1   5.1504835469410901        9.9047760518097885        1.1885731262171746     
         278           1   5.9428656310858727        10.697158135954572        1.1885731262171746     
         279           1   6.7352477152306562        9.9047760518097885        1.1885731262171746     
         280           1   7.5276297993754389        10.697158135954572        1.1885731262171746     
         281           1   8.3200118835202215        9.9047760518097885        1.1885731262171746     
         282           1   9.1123939676650050        10.697158135954572        1.1885731262171746     
         283           1   9.9047760518097885        9.9047760518097885        1.1885731262171746     
         284           1   10.697158135954572        10.697158135954572        1.1885731262171746     
         285           1   11.489540220099354        9.9047760518097885        1.1885731262171746     
         286           1   12.281922304244137        10.697158135954572        1.1885731262171746     
         287           1   13.074304388388921        9.9047760518097885        1.1885731262171746     
         288           1   13.866686472533704        10.697158135954572        1.1885731262171746     