LAMMPS data file via write_data, version 17 Nov 2016, timestep = 40000

4525 atoms
1 atom types

0.0000000000000000e+00 1.3725946732576739e+01 xlo xhi
0.0000000000000000e+00 1.4558565019215520e+01 ylo yhi
0.0000000000000000e+00 2.7451893465153475e+01 zlo zhi

Masses

1 1

Atoms # atomic

198 1 2.8587795416189405e+00 3.5999262635210063e+00 3.2567886782152566e-01 0 0 0
2425 1 8.9435498088034970e-01 5.0789502154633634e+00 1.5318679454855899e+00 1 0 0
259 1 2.4640262900706595e+00 1.6856125948125449e+00 7.5740346095764952e+00 0 0 0
2157 1 6.0448085793509847e+00 1.0532333707018633e+00 1.0052428213188456e+00 0 1 1
1973 1 3.9044992836850401e-01 1.0789295836860497e+00 4.4742121937681896e+00 0 1 1
1428 1 3.7660338779318976e+00 6.7577917292067635e+00 8.7294669953826283e+00 0 0 0
84 1 5.3897548010629635e+00 7.2411091717168166e+00 8.8651903136019283e-01 0 0 0
4353 1 1.0542414678515561e+00 1.7808610726686052e+00 1.9783438428328630e+00 1 1 1
1079 1 4.5065294509144715e+00 3.4597000335258932e-01 2.8050822584427559e-01 0 0 1
2610 1 4.4360989089091110e+00 2.5407242644721060e+00 6.8699704946127671e+00 1 0 0
2301 1 4.8156924765132075e-01 3.7755761694359928e+00 1.7669950770047638e+00 1 0 0
3619 1 3.8823826962220720e-01 3.9832165188910045e+00 3.6190321450045451e+00 1 1 0
2354 1 3.6671671778681270e+00 1.3229551564646764e+00 6.0383857053214767e+00 0 0 0
1356 1 1.3387584135347190e+00 3.1411804394005665e+00 1.6740846756570149e+00 0 1 0
1119 1 3.7301293205676069e+00 5.8510578178288908e+00 5.6535693636900541e-01 0 0 1
3746 1 1.7706215494031181e+00 1.9998693039317332e+00 6.7826156340852162e+00 1 1 0
17 1 1.6275951988965083e+00 3.4274173253211537e+00 5.0107844790185654e+00 0 0 0
1439 1 1.8199992182740230e+00 4.6965523756114136e+00 7.8791997724254008e+00 0 0 0
477 1 4.0352784443016976e+00 4.2098640935048603e+00 8.3406690140664939e+00 0 0 0
20 1 2.0118640313981215e+00 2.8528097863445661e+00 2.5476096158897454e+00 0 0 0
2046 1 6.1747593843505557e+00 1.4804608883241005e-01 1.7041742292239297e+00 0 1 1
330 1 6.5710801237578869e+00 2.9359981480449382e+00 7.2937623993510270e+00 0 0 0
3700 1 5.7882821858295648e+00 3.4073472672977217e-01 6.1416041238831625e+00 0 1 0
167 1 1.7021122973100840e+00 4.4113784186586191e-01 5.9820929203219571e+00 0 0 0
60 1 2.5117416780713220e+00 4.1500436602376611e+00 2.1199164282656375e+00 0 0 0
2747 1 6.0447695025718824e+00 5.5745297826264162e+00 6.0742082029803379e+00 0 0 0
39 1 1.6455900584666072e-01 1.9184622547204353e+00 5.3490009268102101e-01 0 0 0
3494 1 3.4193306226648001e+00 4.8625300403195721e+00 3.4337731348079523e+00 1 0 0
119 1 6.2539200322527888e+00 2.0294173225975514e+00 6.7962155770445536e+00 0 0 0
1508 1 2.3552330705700677e+00 3.2485335717740140e+00 4.1042437314710369e+00 0 1 0
2620 1 2.9378873972276840e+00 5.7770536176808216e+00 8.7850179720849173e+00 1 0 0
873 1 6.0972236653574208e-01 5.7489400406700870e+00 5.7756126555677767e-01 0 0 1
33 1 2.7764808929210179e+00 4.8012881996090178e+00 1.2998906874979073e+00 0 0 0
121 1 4.4893780549852149e+00 1.5114342801959708e+00 2.6891284625842315e+00 0 0 0
3595 1 2.0802431075113175e+00 5.9214105699820863e-01 3.5223955713132242e+00 1 1 0
3734 1 3.1373050429943414e+00 4.8035432421117319e+00 8.1266892641691904e+00 1 0 0
475 1 4.4197660706658146e+00 3.4079287210784948e+00 7.6425894955585454e+00 0 0 0
3693 1 6.4546384258800513e+00 5.7295628640903775e+00 5.1092908797563998e+00 0 0 0
181 1 6.1716358204451351e+00 6.2613440651456358e+00 3.0797208210965388e+00 0 0 0
3220 1 1.4439939823111319e+00 4.3864009020882957e+00 9.9353442159903849e-01 1 0 1
892 1 1.4904248899423871e+00 4.5778546089331423e-01 7.7710164120140202e-01 0 0 1
1213 1 5.3046072892162819e+00 6.1734811412911483e+00 5.4724108762095671e+00 0 0 0
168 1 5.5634485671748966e+00 4.8016826473341521e+00 1.3645432228058394e+00 0 0 0
1059 1 2.8931093430114765e+00 2.2326443873508146e+00 3.7628595554345429e-01 0 0 1
498 1 5.5165180302354022e+00 3.4034588997467252e+00 5.2434622278415493e+00 0 0 0
1304 1 4.4706673227831164e+00 1.9955417852487396e+00 6.3485002099257348e-01 0 1 0
2491 1 1.1282407543942610e+00 1.5265151880493728e+00 6.9879558432766353e-01 1 0 0
2591 1 6.7150290998791560e+00 3.2298934317796921e+00 9.0227135344871048e+00 0 0 0
2034 1 9.0971712936909654e-01 6.0910112909459295e+00 3.3529825479165969e+00 0 0 1
2773 1 5.7817444204457002e+00 5.2539046813855208e+00 7.0322246034350062e+00 0 0 0
2377 1 4.3456911512018701e+00 3.7282579284593744e+00 7.9559613920226646e-01 0 0 0
2441 1 4.1250519413294482e+00 5.1129254991152289e+00 2.6833457617458492e+00 1 0 0
249 1 3.9185377432098734e+00 5.9659666251846035e+00 1.8811199356108550e+00 0 0 0
3660 1 6.4435043740381435e+00 6.7757007267169582e+00 6.0925052485139455e+00 0 0 0
1440 1 2.3382315460974112e-01 4.8950474380817646e+00 6.9287747483538755e+00 0 0 0
3691 1 1.4545698218612972e+00 6.5054760388159165e+00 6.4763979075882103e+00 1 0 0
1539 1 2.5332892117592891e+00 6.7803703208493680e+00 6.6082328160457280e+00 0 0 0
3637 1 5.6240501416740836e+00 2.4066585169976107e+00 4.2023611824103124e+00 0 1 0
3521 1 5.8087800441212538e+00 6.1856856720221423e+00 1.0005794010302058e+00 0 0 0
2540 1 6.2356497580403083e+00 4.0564088458982992e+00 3.5149958599295683e+00 0 0 0
108 1 4.9312221030332637e+00 5.3259246996834992e+00 1.9040407732847324e+00 0 0 0
3679 1 3.3389946016673631e+00 3.0841588978120349e+00 7.1319543108604311e+00 1 1 0
95 1 6.8176158840341472e+00 3.6081011243063501e+00 8.0798089079925806e+00 0 0 0
8 1 6.1835170154517751e+00 6.0603754908653977e+00 4.0844857124740095e+00 0 0 0
2368 1 6.5568777472670303e-01 2.5410330092222808e+00 1.1395955844508414e+00 1 0 0
1367 1 8.5385907402320982e-01 4.8452682603097124e+00 4.0423943397847903e+00 0 0 0
2498 1 6.4194291270244763e+00 4.6510327078017166e+00 2.6097566188883841e+00 0 0 0
260 1 4.4926479106369905e+00 4.3183051789963232e+00 3.6753875825004152e+00 0 0 0
1530 1 2.9283197653685549e+00 1.5441363447853473e+00 3.4859796254340019e+00 0 1 0
329 1 6.7950628281498577e+00 4.3980579025836439e+00 8.9697119238141294e+00 0 0 0
139 1 3.6400181901861006e+00 2.7736009714331287e+00 1.1234819338712061e+00 0 0 0
42 1 5.9691098360829375e+00 4.3332392620251383e+00 5.5129476197402272e-01 0 0 0
322 1 3.7852073399530722e-01 6.5143581081607387e+00 6.1190670202365336e+00 0 0 0
1745 1 5.8965029024288071e+00 7.7281989227975267e-01 8.1941856066084107e+00 0 1 0
418 1 4.3928396974658570e+00 7.0435048812381473e-01 8.9612833388453623e+00 0 0 0
94 1 1.4165862707577999e+00 3.4958357957072552e+00 7.1856104452416121e+00 0 0 0
3784 1 5.5427474249247410e+00 4.4410207897009029e+00 6.3530623619085187e+00 0 1 0
697 1 2.8641618260816042e+00 2.4913442864412381e+00 8.0996223461960497e+00 0 0 0
424 1 5.7384314172480035e+00 3.8663194230220457e+00 9.0378548200541413e+00 0 0 0
334 1 5.3531022102144554e+00 2.9511891631376735e-01 9.0055446048579011e+00 0 0 0
270 1 3.1255540582668342e+00 3.2356775710557848e+00 5.0646416750980192e+00 0 0 0
1429 1 4.0817157621994671e+00 3.6416085123193138e+00 4.5599321353544671e+00 0 1 0
421 1 5.1691874542979397e+00 6.8500660347634899e+00 7.3154335966276349e+00 0 0 0
2476 1 2.2534339123367064e+00 1.3618685650995930e+00 7.8034664890906624e-01 1 0 0
1748 1 4.3582333695313631e+00 3.5804171394106565e+00 6.6136547554165750e+00 0 1 0
2524 1 3.5624586903357272e+00 4.2252656120044749e+00 7.3838795137785507e+00 0 0 0
242 1 6.5298592968309936e+00 3.1406415957430878e+00 5.0635831452165947e+00 0 0 0
4333 1 2.5259439309738920e+00 2.6934419468335946e-01 7.0100469983659808e-01 1 1 1
89 1 3.8060690046117691e+00 2.7264538107807930e+00 2.8174161310015897e+00 0 0 0
2583 1 1.5739546179606980e+00 4.4481697104705393e+00 4.9273279384847184e+00 1 0 0
1743 1 4.5990220892310241e+00 5.1281895311376902e+00 7.9630093657236980e+00 0 1 0
2517 1 5.3562771085912937e+00 5.4939021956168477e-01 4.3004400214306848e+00 0 0 0
178 1 3.7394537920980908e+00 2.3359706275361711e+00 4.4429297807448531e+00 0 0 0
3515 1 4.6523209065354827e+00 4.7554809616816360e+00 9.5953547060158451e-01 0 1 0
298 1 6.0318018996131535e+00 1.7748486051388861e+00 7.8594184404910070e+00 0 0 0
351 1 1.1623976050724816e+00 5.2435522152473790e-01 8.0261024535904184e+00 0 1 0
1366 1 3.3891912256273677e+00 3.8310402765388680e+00 3.5596824229665587e+00 0 0 0
115 1 6.4344330070710152e+00 1.9521944057676615e+00 2.3171321713270379e+00 0 0 0
404 1 3.9778558538794107e+00 6.0767049860061508e+00 7.8806583481848520e+00 0 0 0
2386 1 6.3161675106226225e+00 4.0154891660361276e+00 1.5664399843332282e+00 1 0 0
2082 1 6.5039710263628914e+00 6.9287565588285913e+00 5.6954452399279043e-01 0 0 1
67 1 2.4714143226062788e+00 5.2734085719255823e+00 3.0281762793236515e+00 0 0 0
68 1 2.6053889065498335e+00 1.3678155097916819e-01 2.5272358600392577e+00 0 0 0
1580 1 6.7587324644632840e+00 7.0929267095958730e+00 7.8517634815464454e+00 0 0 0
1116 1 3.5832047185628526e+00 6.7352909506165215e+00 1.0582081194001229e+00 0 0 1
982 1 3.6404368220587013e+00 5.9730746361825666e+00 3.1030443695204779e+00 0 0 1
204 1 6.1271709925283409e+00 3.3217931311277011e+00 4.1636476580278590e+00 0 0 0
285 1 5.1908479514129953e+00 4.3908738228403026e+00 8.2288225354605498e+00 0 0 0
2469 1 4.8234447229266593e+00 1.5450958692122823e+00 7.3322124838809826e+00 0 0 0
219 1 3.6172252252268646e+00 1.2061191590246292e+00 4.3532276132116889e+00 0 0 0
1419 1 4.1545876356018132e+00 7.0018580792198213e+00 3.0855591043427739e+00 0 0 0
310 1 1.9172989203387940e+00 6.4700599130269447e+00 7.3985095027448136e+00 0 0 0
1275 1 3.7998960942514048e+00 6.3358639124441796e+00 4.1118015889807760e+00 0 1 0
3714 1 1.4080821853579786e+00 1.0263962647111800e+00 8.8125604842887046e+00 1 1 0
240 1 6.7678772618527407e+00 4.8951846718034968e+00 6.4617129471790786e+00 0 0 0
1437 1 6.5433206296653710e+00 5.3285830746809166e+00 1.3174361187557329e+00 0 1 0
117 1 4.5588824237279990e+00 6.9901329326132675e+00 8.1892899830031798e+00 0 0 0
256 1 5.9521035526781869e+00 2.6198683723395979e-02 7.4238480738116168e+00 0 0 0
2225 1 4.2245878610276144e-01 7.1649737108717977e+00 5.2733539145338870e+00 1 0 1
2630 1 3.3975058759338226e+00 5.9203656357087366e+00 5.3502556803711991e+00 0 0 0
52 1 5.5496276214461444e+00 5.2516413075280859e+00 3.8134272823997168e+00 0 0 0
3887 1 6.2389826953424024e+00 4.7763902379896237e+00 7.9883742575344021e+00 0 1 0
2503 1 6.3652570021316759e+00 3.8729356275559241e+00 6.7947368092530400e+00 0 0 0
2564 1 6.4168197734000429e+00 3.0352415265871127e+00 6.0511582223869285e+00 0 0 0
3758 1 1.9616688019093254e+00 2.0067226217812180e+00 3.6598259942100260e+00 1 1 0
4286 1 3.3387332894083537e+00 6.9061787373447148e+00 2.1856147361461651e+00 0 0 1
100 1 9.0270431151608890e-02 2.3770205560219657e+00 5.9698393232090066e+00 0 0 0
1368 1 3.4882853067126294e+00 7.9035178307881415e-01 5.4952873082068465e-01 0 1 0
561 1 4.6686718015229642e+00 5.8464820836079685e+00 6.8585864801521419e+00 0 0 0
130 1 3.0948923441761460e+00 2.7206925416512227e+00 3.6119923273478887e+00 0 0 0
200 1 2.2402016877744635e-01 4.6636612610956831e+00 8.0835750864597122e-01 0 0 0
140 1 3.0503535389016321e+00 1.9049411418868405e+00 1.3564393974389830e+00 0 0 0
2553 1 5.1430338924686403e+00 1.6560286576734919e+00 8.2666568467078640e+00 0 0 0
3824 1 1.1944939077093832e+00 9.7876678677213491e-01 3.4982979958170386e+00 1 1 0
441 1 1.7780242761478571e+00 3.5700318310800383e+00 8.1707728784546774e+00 0 0 0
2818 1 4.9097551820188254e+00 3.3673264577480668e+00 8.5677684824257270e+00 0 0 0
3706 1 4.2039837431208786e+00 6.6992638549426120e+00 6.9057395956380345e+00 0 0 0
349 1 3.5455093665023711e+00 1.7299342732077201e+00 7.1862890477595469e+00 0 0 0
2443 1 8.6519090522656150e-01 1.7155057835027221e+00 6.3440275066713916e+00 1 0 0
1285 1 2.4985520323763373e+00 7.0414861058049487e+00 5.4894839054637163e+00 0 0 0
1278 1 1.7591791272871682e-01 7.1902338971228046e+00 8.8078579628467590e+00 0 0 0
367 1 4.1244148618380505e+00 2.3588819392107174e+00 7.8700467968024679e+00 0 0 0
3479 1 8.5816818901048419e-01 2.7268461485414641e+00 6.7274852057113019e+00 1 1 0
40 1 4.7155576394515126e+00 3.1526048972046721e+00 5.7998950500151318e+00 0 0 0
1127 1 4.0776228619817507e+00 2.1322856611368475e+00 1.9108479458991445e+00 0 0 1
1248 1 2.4102563322592707e+00 1.2231232926293831e+00 4.3904322152530630e+00 0 1 0
4179 1 6.0591043552971726e+00 1.0444678151882272e+00 7.0799145988367904e+00 0 1 1
1262 1 5.0715111359223233e+00 5.5914122616921089e+00 3.2696952763553838e-01 0 0 0
2575 1 2.7569308633888632e+00 2.2261676207203562e+00 6.4595913133742151e+00 1 0 0
1244 1 4.0985754008040560e+00 6.9146806334931721e-01 2.2356816313682737e+00 0 1 0
146 1 3.4459525241705968e+00 6.9641716551479584e+00 7.7024114507227326e+00 0 0 0
230 1 3.3815524269110964e+00 3.4440658532758066e+00 8.2262708192155092e+00 0 0 0
111 1 4.7299609777718388e+00 3.5567573601279183e+00 2.9446582210494299e+00 0 0 0
154 1 5.4144014013205304e+00 1.7189912087754009e+00 3.1981698763947866e+00 0 0 0
2232 1 4.1068805882481936e+00 1.2288029624694510e+00 1.2335923913846552e+00 0 1 1
2488 1 6.5831224569377396e+00 6.5628807561565914e+00 1.7022282165222349e+00 0 0 0
3696 1 4.6835727604250188e+00 4.1704610217799489e+00 1.9163787916351007e+00 1 1 0
3186 1 1.3427791239817619e+00 3.4220543378436883e+00 6.5813058739108410e-01 1 0 1
1425 1 5.2827583940262448e+00 1.4049792980443345e+00 5.1892823389728822e+00 0 1 0
255 1 2.0775834210739470e+00 8.7571667644727247e-01 1.7522668309906628e+00 0 0 0
208 1 1.2205735981070671e+00 2.8594353644348360e+00 3.6958981253702943e+00 0 0 0
2407 1 8.2517991917096489e-01 6.3131374779635898e+00 8.5055251394168874e+00 1 0 0
1402 1 4.1958892365385703e+00 1.1029629720057419e+00 8.0352908292173950e+00 0 1 0
2511 1 5.4750185932802449e+00 2.6661495269199222e+00 7.2431246825022093e+00 0 0 0
4054 1 6.7149399639988250e-01 6.4525316032615692e+00 7.1584135481969033e+00 1 1 0
2609 1 1.0657780324371864e+00 5.6180799561559462e+00 7.7447221204287011e+00 1 0 0
4517 1 6.1802906582508097e+00 1.3289283368122866e+00 4.3866704008107531e+00 0 1 1
2520 1 2.4522757441626544e-01 7.1509343334818709e+00 2.9723303288054925e+00 1 0 0
344 1 4.5332268773654008e+00 2.0681937080893698e+00 5.9233200773952266e+00 0 0 0
2518 1 4.5875160925165588e+00 9.1985849717141255e-01 6.2003760660360649e+00 0 0 0
171 1 2.0899362562783339e+00 5.7481142535238936e+00 4.9106717377107021e+00 0 0 0
3894 1 4.4207959949343749e+00 5.5354196345856961e+00 3.7722247774895585e+00 0 0 0
2360 1 1.7279950902253522e+00 5.6131307237641224e+00 1.0643984785729297e+00 1 0 0
3704 1 1.1719726246859989e+00 5.0388375916157999e+00 8.6190000655449488e+00 1 1 0
3766 1 2.9185629357106015e+00 5.9491594073367580e+00 7.4943975073884763e+00 0 0 0
122 1 2.9808546044398021e+00 5.5334342117849369e+00 4.0813467080588177e+00 0 0 0
44 1 5.1064466001857207e+00 3.1801979871093597e+00 2.8663470210785197e-01 0 0 0
2309 1 1.2996334382131076e+00 3.8300061561159850e+00 6.0502377647034589e+00 1 0 0
153 1 4.9769814581695835e+00 4.3018652771817258e+00 5.9012670647315385e-02 0 0 0
3627 1 5.4109269003839975e+00 5.2654508333078134e+00 4.9886215867550625e+00 0 0 0
3726 1 8.1459636332081531e-01 2.8065695513579629e+00 8.6209199415863189e+00 1 1 0
182 1 3.2017578104459647e+00 3.6837137161984961e+00 6.4013990605979494e+00 0 0 0
3797 1 3.5262243466209640e+00 6.1253865616622671e-01 3.2403220783001667e+00 0 1 0
184 1 5.0715976778082998e+00 3.4168875924465261e+00 4.1831000148405932e+00 0 0 0
4347 1 1.0368240523555419e+00 6.8564355417777980e+00 1.1668731863203012e+00 1 0 1
2492 1 1.6120643625878799e+00 9.8458935542987769e-01 6.8641515268663769e+00 1 0 0
343 1 3.0623526753812591e-01 3.8796275346460463e+00 7.0962501138445955e+00 0 0 0
1241 1 4.0954028038018592e-01 7.7427446529655120e-01 7.3389138745453284e+00 0 1 0
3597 1 3.6732839241509279e+00 4.4524740607695081e+00 5.3045004281207486e-01 0 0 0
2059 1 3.9417081951232986e+00 4.9385852911824539e+00 6.2858806793944826e+00 0 0 1
3728 1 5.7169609977401565e+00 2.3820971907877477e+00 5.5173919664999049e+00 1 1 0
814 1 1.3046020034565675e+00 5.0585635400289810e+00 2.3884236891543503e-01 0 0 1
2545 1 2.6281992979618392e+00 3.7659338173333596e+00 7.5479496509976114e+00 1 0 0
24 1 1.4938799290814448e+00 6.3248566522725618e+00 3.5800751046185819e-01 1 0 0
2527 1 1.2740650250740737e+00 6.3530926971831496e+00 5.4189495923851148e+00 1 0 0
3439 1 8.5563138800819971e-01 6.1925216612570555e+00 2.0958815608262924e+00 1 0 0
145 1 2.8638814211384691e+00 2.8750198406077003e+00 1.8318524759735215e+00 0 0 0
2607 1 6.4070696103499181e+00 4.8665702455540734e+00 4.4934535998781389e+00 0 0 0
2660 1 2.1152941528238598e+00 4.1629795815519799e+00 6.7905905310336925e+00 1 0 0
2312 1 4.9434621566948872e-01 7.2626724630392188e+00 4.0065665931960943e+00 1 0 0
401 1 5.0832864479655342e+00 4.2731440854783248e-01 6.9274935285446393e+00 0 0 0
425 1 3.9273359307686393e+00 5.3292193465093822e+00 8.7354675217399400e+00 0 0 0
476 1 1.2223271080242522e+00 4.5961505189804379e+00 6.9020720647950800e+00 0 0 0
2801 1 6.2382871738288364e+00 7.1444132828999747e+00 2.5026697006758676e+00 0 0 0
366 1 2.9950395771794041e+00 6.8853526688798228e+00 3.3288925413325363e+00 0 0 0
2771 1 1.9091099441493893e+00 2.4128185206341151e+00 8.6775388982775858e+00 1 0 0
207 1 1.0053933095843766e+00 5.5770618091835802e+00 6.4768162269398841e+00 0 0 0
2544 1 6.3773451942351764e+00 2.2869122608265298e+00 3.4353090778448356e+00 1 0 0
2395 1 1.7835174102125797e+00 2.4083439220224898e+00 6.0845993636618489e-01 1 0 0
192 1 5.5289785044279682e+00 6.1764429147505799e+00 2.1834545789908599e+00 0 0 0
3451 1 2.2325436153920486e-01 2.6515531594180710e+00 3.6000255937837653e+00 1 1 0
2627 1 2.1712934151271428e+00 5.8243027570374550e-01 7.7401351236646532e+00 1 0 0
3901 1 3.3373779831467383e+00 6.0722525190747785e+00 6.4517935761169962e+00 1 0 0
163 1 3.7988145597302365e+00 4.0757819247121621e+00 5.4521188513308783e+00 0 0 0
215 1 5.1190640675964350e+00 5.0386075323862487e+00 2.9255925191785810e+00 0 0 0
336 1 5.1637955694145443e+00 6.1755090227829061e+00 4.1353407371391500e+00 0 0 0
2628 1 4.9399743007846597e+00 5.2651947688651441e+00 6.0245078317423664e+00 0 0 0
179 1 3.8775498045057764e+00 7.7844548753518750e-01 7.0405339399557816e+00 0 0 0
194 1 5.5011212139241294e+00 3.4814512754787792e+00 6.4690084432751753e+00 0 0 0
2388 1 5.1929014151613053e+00 5.8687156201976451e+00 7.7749601162443538e+00 1 0 0
1327 1 4.0031234135574527e+00 4.0956455574725978e-02 4.2697804004892239e+00 0 1 0
186 1 2.7002141369116655e+00 5.8957076162055939e+00 2.1345002616389883e+00 0 0 0
3346 1 1.2807665088594278e+00 5.1695624546633860e+00 2.9311210205628426e+00 1 0 1
4019 1 2.6396550109139385e+00 1.2265429037052091e+00 6.6773575752131702e+00 0 1 0
2017 1 2.1185096388106515e+00 1.9926442837261132e-01 4.8608739618478189e+00 0 1 1
2670 1 6.0124101736227153e+00 2.8371022363383895e+00 8.2288352179365134e+00 0 0 0
133 1 3.8020517172219876e+00 4.7882229187828864e+00 4.4772807933579521e+00 0 0 0
371 1 3.0930143123462912e+00 4.8799201744709819e+00 5.1525808110340243e+00 0 0 0
1274 1 4.7662678319301754e+00 4.4243842179060504e+00 7.2475309668297960e+00 0 1 0
374 1 2.7186764762580728e+00 6.9447720297077185e+00 4.3147898624438614e+00 0 0 0
2505 1 4.1602864807689066e+00 3.2442380531035129e+00 1.9511598065498492e+00 1 0 0
2418 1 5.6611349997454075e-01 4.2531130545412337e+00 4.9509285715335540e+00 1 0 0
2126 1 4.3800420707739187e+00 5.5657826767511160e+00 4.9938666936087879e+00 0 1 1
3593 1 2.6660314293867753e+00 2.2098532734374117e+00 4.4435624330597729e+00 0 1 0
3424 1 6.2259069079716589e+00 5.4304054886037445e-01 5.2370810272373980e+00 0 1 0
377 1 5.0407690921974107e+00 6.7392679612037858e+00 6.3012780446817258e+00 0 0 0
2487 1 2.1862626120894197e+00 6.0967129016207018e+00 3.7413827963279034e+00 0 0 0
1412 1 1.5821153104863546e+00 1.4753987742977530e+00 7.9398273388492342e+00 0 1 0
239 1 3.7421398882087717e+00 4.0452581894932464e+00 2.5771469560280811e+00 0 0 0
3308 1 5.4309158007295211e-01 1.4501741517335504e-01 3.4726968356908339e-01 1 0 1
1191 1 5.9130378597417899e+00 8.1471141336461950e-01 3.3704432897252268e+00 0 1 0
15 1 2.9619703156304338e+00 5.8040378166838327e+00 1.1852173877667744e+00 0 0 0
3918 1 1.7323278847080997e-01 5.1636690656372570e+00 3.3310093529270057e+00 0 0 0
2328 1 2.5338963349221779e+00 7.1697141554795234e+00 7.6014680908611976e-01 1 0 0
360 1 4.2198515598313522e+00 1.5030903509002784e+00 5.0942907625475558e+00 0 0 0
253 1 2.3702199684915986e+00 3.5758080646638333e+00 1.2079302649915182e+00 0 0 0
299 1 4.8311391062070417e+00 6.0633048966160601e+00 2.8806071869072474e+00 0 0 0
248 1 4.6772564967135555e+00 2.4752806580994777e+00 4.9781731249410797e+00 0 0 0
2458 1 1.0384249432466814e+00 1.9703447052493333e+00 2.9982234240435246e+00 1 0 0
1163 1 3.2934888068818422e+00 1.3200199319596262e+00 2.2327724814693268e+00 0 1 0
251 1 5.9871937088452665e-01 4.6755122480868856e+00 5.9016401023241842e+00 0 0 0
2428 1 3.8722701762802347e-01 3.0256046433128003e+00 7.6423759785904881e+00 1 0 0
3705 1 6.8185792850961802e+00 2.2310608674768511e+00 4.3308269337803971e+00 0 0 0
3606 1 6.8367453486553114e+00 3.6299319495283511e-01 6.9478280792774711e+00 0 1 0
2454 1 3.3952233819179209e+00 3.8338043296510023e+00 1.4828598303355558e+00 1 0 0
201 1 2.5244275826562834e+00 1.4699741548409586e+00 8.7605051623438772e+00 0 0 0
3459 1 6.4568500873613059e+00 2.0731120641210325e+00 1.1907160582876473e+00 0 1 0
3765 1 5.7604911769939440e+00 3.7358567560475135e+00 7.6653492693681002e+00 0 0 0
2593 1 4.8687566863353604e+00 4.2735493221368470e+00 5.3094248123473493e+00 0 0 0
2367 1 2.2493947485434247e+00 1.3320869313226530e-01 6.8401786814885837e+00 0 0 0
3720 1 5.9282169082108782e-01 1.9220825190383004e+00 7.5328932571421534e+00 1 1 0
262 1 4.8040244173624043e+00 1.6734073341072206e+00 4.2115366006899713e+00 0 0 0
302 1 5.5255550046175372e+00 1.5668874830716848e+00 6.1806123148129135e+00 -1 0 0
1260 1 5.0751428867820243e+00 6.8925880357159908e-01 1.3922761387674014e+00 0 1 0
385 1 3.1656513393598478e+00 8.8094854468592454e-01 8.1143084744679559e+00 0 0 0
2335 1 2.0368708563849043e+00 1.6371074287545302e+00 2.5611916453507231e+00 1 0 0
1393 1 1.9102441134971666e+00 4.8292582099708374e+00 4.0361408154373057e+00 0 0 0
257 1 2.3184926688310541e+00 2.7957703156193858e+00 7.2857951388578890e+00 0 0 0
3657 1 3.9278651017124500e-01 8.8553025255470297e-01 2.4937266180255340e+00 0 1 0
191 1 2.3085456238837779e-01 5.0101263983404447e+00 8.0373000834068495e+00 0 0 0
2720 1 1.0195714755810723e+00 3.8754711771092536e+00 9.0732012403353011e+00 1 0 0
2537 1 5.9098370369882440e+00 7.1849506925489361e+00 3.7355476319976648e+00 0 0 0
1180 1 5.9036917193786600e+00 6.8389049279724174e+00 4.8542671971930718e+00 0 0 0
38 1 1.1964404948192569e+00 2.6405778447886359e+00 5.7158751946839956e+00 0 0 0
102 1 5.0619629453091735e+00 2.6028133865247232e+00 2.5000629423695013e+00 0 0 0
2473 1 6.2018192855507637e-01 2.6348309661092957e+00 2.3650598648657626e+00 1 0 0
45 1 2.5230785133991347e+00 6.8186777286657376e+00 8.2130641549540755e+00 0 0 0
4402 1 2.3418427193117948e+00 4.8420030725915897e+00 4.4201974298954033e-01 0 0 1
1078 1 1.5044887173056838e+00 7.4375038317666309e-01 2.5480822275598771e+00 0 0 1
2648 1 3.4952934611776540e+00 2.6581793263515530e+00 5.7877044860092415e+00 0 0 0
1467 1 2.6750603304786842e+00 2.7486205436352867e-01 5.8076707233943639e+00 0 1 0
282 1 6.1995228710970620e+00 3.1792484610520257e+00 6.3460793371454960e-01 0 0 0
203 1 2.2168123725770457e+00 3.1977023688247801e+00 6.3466231619947999e+00 0 0 0
2150 1 4.3928630871289061e+00 7.0980944401124884e+00 5.4341737628812392e-01 0 0 1
2642 1 2.9645801112762071e-01 5.7253184325712496e+00 4.1943705192822183e+00 1 0 0
1452 1 1.6165422858027273e-01 1.5276776098113818e+00 3.4753696862745995e+00 0 1 0
1318 1 3.6911357592392022e+00 5.2748605396606019e+00 7.2247816802945062e+00 0 0 0
1146 1 3.2154470604793297e+00 5.0188231064668738e+00 2.2156189725268014e+00 0 0 0
214 1 4.5630791535273261e+00 6.9245066039917305e+00 4.8650895056820920e+00 0 0 0
2638 1 3.6068437407355329e+00 2.0185689644222387e+00 8.8003102300035145e+00 1 0 0
2430 1 3.1354094555893277e+00 1.6898314339066394e+00 5.2179775381743703e+00 1 0 0
4314 1 2.0990795273776071e+00 6.5826562127881960e+00 1.4991538598765832e+00 1 0 1
1487 1 7.5887761627363326e-01 1.8054357158616554e+00 5.1704067635377138e+00 0 1 0
224 1 1.3839316800438910e+00 3.8510635930456969e+00 3.9869898287186198e+00 0 0 0
2392 1 1.9829980826078422e+00 5.3505677588821294e+00 7.0374187399390689e+00 1 0 0
1468 1 6.5795170334054562e+00 3.5576824362759214e+00 2.4919206371594980e+00 0 1 0
2525 1 5.6914122991600244e+00 3.0991895323063794e+00 3.1422422230795486e+00 1 0 0
3458 1 1.1909586309805906e-01 3.5110151397192051e+00 7.3072641451005849e-01 1 1 0
2581 1 5.8008122315254234e+00 2.7200475947748899e+00 1.8093160052349597e+00 1 0 0
2483 1 5.3596989379601947e+00 3.6955248852140445e+00 1.1628882819315849e+00 0 0 0
2531 1 1.0055306439579796e+00 3.4866519095501118e+00 2.8628004991590723e+00 1 0 0
3617 1 6.4749049563594605e+00 2.9609728904158522e-01 4.2044855162656507e+00 0 1 0
4466 1 4.8905389755909150e+00 2.6550801049249979e+00 1.3551118388752807e+00 1 1 1
3970 1 2.1552964559444840e-01 1.3718545801807798e+00 8.3883186154766012e+00 1 1 0
2615 1 2.0963586942599846e+00 5.6668359579530234e+00 8.1543408998397613e+00 1 0 0
25 1 1.9758295578701939e+00 2.2220723881150235e+00 1.6152481944403903e+00 0 0 0
3710 1 5.2387975518212686e+00 6.9363819785908349e+00 2.9620732810050061e+00 0 0 0
1492 1 4.1877619089731244e+00 2.9801623669296995e+00 3.7466474102205130e+00 0 1 0
3594 1 1.5386441761609608e-02 1.4476571682852448e+00 1.5918567924538518e+00 1 1 0
2073 1 1.2754882155032654e+00 6.1001312372876360e+00 4.2684451304018731e+00 0 0 1
2647 1 1.7156775870768068e+00 2.1749621116621345e+00 4.7967942698674300e+00 1 0 0
3996 1 7.5488879684296872e-01 8.1243496912844992e-01 5.5753536427832788e+00 1 1 0
3805 1 5.5987145762569028e+00 2.3089742706210834e+00 6.0766991984597885e-01 0 1 0
409 1 3.8545626178171184e+00 4.8077291487216023e+00 1.5876520498321081e+00 0 0 0
3530 1 2.4870780542795310e+00 6.2529518529397974e+00 1.6000397009044182e-01 1 0 0
316 1 3.9531643221838175e+00 1.9577379229215930e+00 3.5252444748876961e+00 0 0 0
128 1 2.0375774598229381e+00 5.1156354358128073e+00 2.0353612925142475e+00 0 0 0
65 1 2.7853095625799531e+00 5.0145605721622211e+00 6.4599026780590085e+00 0 0 0
106 1 4.6694327685786963e+00 6.9189137994010510e+00 1.9298147077638705e+00 0 0 0
3641 1 8.9771897871627093e-01 1.8971579688184705e+00 4.0545545732172412e+00 1 1 0
2431 1 2.7881729742151418e+00 4.3722141733875430e+00 4.2336764264029529e+00 1 0 0
328 1 6.0217830757479156e+00 6.2940986585750762e+00 6.9136658639859228e+00 0 0 0
2457 1 5.6124565052179651e+00 4.2418076295934233e+00 4.5165903915147450e+00 1 0 0
149 1 5.1199702225487975e+00 1.7161962057279792e+00 1.7941464493092054e+00 0 0 0
3525 1 4.7274587571849160e+00 3.1065327760420536e-01 5.1664654484234509e+00 0 1 0
1474 1 5.5990575216300167e+00 3.8553099068703753e+00 2.2830721803243783e+00 0 0 0
1424 1 3.1848618394432215e-01 3.2992254811669128e+00 5.5794948090967926e+00 0 0 0
1091 1 4.7486940086914169e+00 6.3442221508128664e+00 1.1261183949468569e+00 0 0 1
2349 1 8.2569854534779097e-01 2.8455209181780812e+00 4.6618850386217048e+00 1 0 0
3800 1 2.4129822528032556e+00 3.8327048319571166e+00 5.5564330848699361e+00 1 1 0
1443 1 5.7554269691209567e+00 5.0477120239264428e+00 8.8731973379272198e+00 0 0 0
83 1 2.2650393346377586e+00 5.8920081405014821e+00 6.1273330644671278e+00 0 0 0
3874 1 1.4272854542110012e+00 2.5553350981067857e+00 7.7170033479438338e+00 1 0 0
1352 1 8.7710985696302024e-01 6.7639068011450465e-01 1.5754237373937836e+00 0 1 0
286 1 2.9468918902597472e+00 3.3846435266776802e+00 2.7556222746154799e+00 0 0 0
439 1 8.4810701497570085e-01 4.1704352564300153e+00 7.9639612354209870e+00 0 0 0
1434 1 6.1306651000516554e+00 4.4340236572842695e+00 5.4462119286480206e+00 0 1 0
1184 1 4.4584129846908409e+00 8.1920021070309890e-01 3.6191467188420989e+00 0 1 0
1339 1 2.3772973901176293e+00 4.2123641592763761e+00 3.0871486293137380e+00 0 0 0
2605 1 1.0323127207733693e+00 5.7199992224022563e-02 6.8987520386772374e+00 1 0 0
2634 1 5.5364031584949913e+00 6.7110644725066058e+00 8.4849503802494670e+00 1 0 0
1338 1 3.0604819165482866e-01 4.3925255329005690e+00 2.5643812751591391e+00 0 0 0
931 1 5.8228382125263645e+00 1.0928172687166500e+00 2.2681670150009641e+00 0 0 1
4437 1 1.7471546505204927e+00 6.2022258366599354e+00 2.8320295933630453e+00 1 0 1
345 1 2.4702912987740633e+00 2.5252702496148585e+00 5.4903610840763548e+00 0 0 0
2228 1 5.1121284905707700e+00 1.2168674018380363e+00 3.4724680558769233e-01 0 1 1
3600 1 6.5739990808007081e+00 5.2663661791400891e+00 3.4364631511681494e+00 0 0 0
547 1 1.0978587693040596e+00 5.3783349266225970e+00 5.1372411232780228e+00 0 0 0
212 1 1.7281083735530463e+00 4.9058953912865793e+00 5.8457729679827466e+00 0 0 0
1358 1 4.2771948210694619e+00 6.1143161069822822e+00 5.9113358762241752e+00 0 1 0
2677 1 2.5826709240761176e+00 4.0373580367720852e+00 8.6286354643157850e+00 0 0 0
1332 1 2.8917084676273608e+00 3.4275229110685151e-01 4.1519016362481596e+00 0 0 0
1506 1 2.4916617075313479e+00 3.7326959088162526e-01 8.8142021831428075e+00 0 1 0
4251 1 2.9506101173550001e+00 2.2969558152078831e+00 2.7195543698223172e+00 1 1 1
2711 1 4.9251240771257621e+00 5.7438025144816711e+00 8.9360738710193441e+00 0 0 0
26 1 1.3775112065212618e+00 4.3226056168074560e+00 2.3105871866189980e+00 0 0 0
2437 1 5.0944493720953794e+00 2.3250754947887423e-01 2.5273074099383144e+00 1 0 0
3258 1 5.3874897088538398e-01 2.8342640632018963e+00 2.9890606774845446e-03 1 0 1
3692 1 1.9541032250721526e+00 1.4227608916377177e+00 5.6655544089996193e+00 1 1 0
370 1 6.2968856637998574e+00 5.9194317334578166e+00 7.9871309346785981e+00 0 0 0
2698 1 6.7405212791531000e+00 2.1284748329063046e+00 8.4440847272650554e+00 0 0 0
135 1 6.5708089748814915e+00 1.2266521911083774e+00 6.0778510912857069e+00 0 0 0
183 1 3.6693278189212672e+00 5.4304881709165120e-01 5.3699695082342576e+00 0 0 0
1470 1 1.0865398051641799e+00 1.8755403369986798e-01 4.1579098499714240e+00 0 1 0