LAMMPS data file via write_data, version 17 Nov 2016, timestep = 40000

4847 atoms
1 atom types

0.0000000000000000e+00 1.3152798037662496e+01 xlo xhi
0.0000000000000000e+00 1.3950649026012398e+01 ylo yhi
0.0000000000000000e+00 2.6305596075324988e+01 zlo zhi

Masses

1 1

Atoms # atomic

1510 1 1.5641758855090155e+00 4.9766034616009005e+00 4.0027823655365884e+00 0 1 0
3948 1 6.5248332328790735e+00 5.6642592258359903e+00 4.3021290583229979e+00 1 0 0
218 1 7.9486459933234399e-01 4.0396609218071000e-01 1.4874858406333732e-01 0 0 0
177 1 2.5464003461767586e+00 3.3452155231749874e+00 4.5645127983030104e-01 0 0 0
4032 1 4.8395758197017589e+00 1.6330902694166594e+00 1.0083979529818907e+00 0 1 0
2693 1 4.7006590862930295e+00 6.5323585546000595e+00 2.1264245199237197e+00 0 0 0
1224 1 2.5258346040284079e+00 6.8377576256656640e+00 2.6722475476038552e+00 0 0 1
437 1 3.5911990887050984e+00 3.1294089864218333e+00 4.6051529595391898e+00 0 0 0
3739 1 2.6745491210775540e-01 7.3066584503506715e-01 6.4288178701524732e+00 1 1 0
114 1 2.4286527757535401e+00 6.4500538826964107e+00 4.6364077602143636e+00 1 0 0
119 1 5.9169786312507400e+00 1.9582911681063395e+00 4.0241136726999249e+00 0 0 0
2816 1 4.5024784908994189e+00 2.7940535379891882e+00 1.9042224639631982e+00 0 0 0
719 1 1.5535565465470866e+00 2.2348005065668657e+00 7.6037492639303395e+00 0 0 0
280 1 9.5731201446756298e-01 4.9959264057401347e+00 6.9553039039085043e+00 0 0 0
2465 1 5.0021329297660051e+00 1.0978934180012682e-01 1.5553291665825213e+00 0 0 0
2823 1 6.2783160250210353e+00 2.3195708590805073e-01 8.0315745640144538e+00 0 0 0
2171 1 5.8454530143257157e+00 8.6823045214933181e-01 4.4335532338806416e-01 0 1 1
1331 1 3.0753638541355106e+00 1.3624240174160458e+00 4.6381208481585565e+00 0 1 0
1527 1 5.9746106445688021e+00 1.3341466951034366e+00 5.0464894906297078e+00 0 1 0
299 1 1.8355520067470170e+00 4.8675995340235936e+00 7.2659184968641979e+00 0 0 0
4825 1 1.2171372331949419e+00 3.4784666629815479e+00 2.1504180070330467e-01 0 0 1
2740 1 5.4582265843432758e+00 2.7611437480202254e+00 3.3710385518551855e+00 0 0 0
2870 1 5.9582069404741000e+00 1.9109800251233835e+00 6.4131712560842438e+00 0 0 0
73 1 6.2123177574141621e+00 2.4126799991099412e+00 2.7646472596888878e+00 0 0 0
224 1 3.4187256903670959e-01 6.3780009308114742e+00 1.5127141565820446e+00 0 0 0
498 1 2.2535230480198885e+00 1.1950859234725899e+00 7.3393018268309378e+00 0 0 0
2650 1 4.8771044365328908e+00 1.7611033547332586e+00 6.5381038488151413e+00 0 0 0
1627 1 3.8785999215380969e+00 6.5845923495606158e+00 4.1699189216889474e+00 0 0 0
2603 1 1.1660615342939546e+00 3.8780902706787566e+00 1.8516910025922573e+00 0 0 0
2893 1 4.0294029566143248e+00 4.1099223655879022e+00 3.9684897261686749e+00 0 0 0
2547 1 5.0378522555383365e-01 4.6466117773235496e+00 4.1535445404996887e+00 1 0 0
248 1 5.8351320140944174e-01 6.0364493650000783e+00 5.1268477557896066e+00 0 0 0
479 1 6.5612978843302816e+00 4.9085014170117773e+00 6.7176252501942351e+00 0 0 0
74 1 6.1064972047856854e+00 3.6921106445610699e+00 5.9629651769414656e+00 0 0 0
168 1 5.5123068594208622e+00 4.5184818470096149e+00 2.2167772045232890e+00 0 0 0
2488 1 2.6583308748482599e+00 3.2590069642156778e+00 2.7786153890965863e+00 0 0 0
4082 1 5.3340530067178564e+00 2.5958307502952795e+00 7.0371542741878166e+00 0 1 0
3772 1 1.1285975436168603e+00 6.5965942971054687e+00 2.2916273235868587e-01 1 0 0
304 1 5.1643976169472969e+00 6.0366665276454645e+00 4.7380648802936953e+00 0 0 0
236 1 2.3904077660204774e+00 2.6528996590016041e+00 4.4792181118786996e+00 0 0 0
1575 1 2.9602447811457551e+00 5.0771556114010785e+00 2.2074519611522727e+00 0 0 0
659 1 3.8381599239974551e+00 5.4854900408069547e+00 7.6180245753625462e+00 0 0 0
2811 1 4.4370318055475204e+00 2.6992829968445338e+00 6.5260614929332466e+00 0 0 0
1215 1 6.2194297372672454e+00 3.3227342587883761e+00 2.6038919803941121e+00 0 0 1
402 1 4.8301899857741200e+00 5.6472360749928683e+00 7.8840585468814046e+00 0 0 0
2550 1 1.1243653591711464e+00 2.5514925696199260e+00 6.4360340066819379e+00 0 0 0
30 1 2.5568398999120157e+00 4.3704145470579245e+00 2.5189077538743682e-01 0 0 0
1353 1 6.1971850622616644e+00 6.2723945531875680e+00 6.2323001056481928e+00 0 0 0
3733 1 3.0913601632859402e+00 1.2135655658863889e+00 2.5851578416639107e+00 0 1 0
3901 1 8.2024366521348133e-02 6.8492977242780846e+00 2.4702189820815375e+00 1 0 0
2436 1 5.2642127937611258e+00 3.4507098380391596e+00 5.4200192073270888e+00 1 0 0
509 1 3.1524661983303970e+00 5.7698023944760557e+00 4.2776563968549643e+00 0 0 0
1604 1 3.6364000437449273e+00 1.4660922494596220e+00 8.4623889750380190e+00 0 1 0
1572 1 5.1660075121197160e+00 6.8263385060954089e+00 6.6335391919032176e+00 0 0 0
276 1 6.0369802752598476e+00 4.2135338797358095e+00 3.0314120015958279e-01 0 0 0
2321 1 2.4717777358798272e+00 6.6402579985558781e+00 9.6631633617928092e-01 0 0 1
292 1 4.8880878636227889e+00 5.5838532641986882e+00 2.6709373373236436e+00 0 0 0
2725 1 1.0476704266638079e+00 6.2894019787880060e+00 6.8097684339169273e+00 1 0 0
82 1 2.1186628793242579e+00 2.2281575459308716e+00 3.6110912078949147e+00 0 0 0
255 1 4.3676341613134434e-01 5.7941905302642898e+00 7.7619136447753627e+00 0 0 0
3006 1 3.2505539546460218e+00 3.6984238119596049e+00 3.5821670008049882e+00 0 0 0
2956 1 1.9090772678379436e-01 4.8542600909177622e+00 7.7488477222276826e+00 1 0 0
2364 1 1.6639644742776909e+00 1.9137635494954284e+00 1.9001573235792608e+00 0 1 1
33 1 1.4426274616776784e+00 6.7494666787156576e-01 9.7555751327945439e-01 0 0 0
65 1 2.6299821603189155e+00 5.4370786434338365e+00 3.2875349249997314e+00 0 0 0
110 1 3.2332256702989950e+00 8.6772246953098223e-02 4.6303629504064263e+00 0 0 0
1511 1 1.2173065226497726e+00 6.6455670112334964e-01 3.9328496630584082e+00 0 1 0
52 1 4.2550338346722789e+00 3.8278946700002416e+00 1.9709032963536601e+00 0 0 0
2820 1 5.1168943478429609e+00 1.4375603270005213e+00 7.5114061194815553e+00 0 0 0
869 1 6.1637423094336024e+00 5.4989454559199729e+00 1.2230117232599522e-01 0 0 1
273 1 6.1770931538487392e+00 1.0191644260727204e+00 7.4264027992433075e+00 -1 0 0
4729 1 5.5961041423068014e-01 2.0842582002996168e-01 1.4000180980545891e+00 0 1 1
2980 1 8.0590097944264727e-01 2.7888511545559258e-01 7.2797617013773479e+00 1 0 0
2705 1 6.6220673790209161e-01 4.8372741305037827e+00 5.1430567300170562e+00 1 0 0
151 1 5.2466655224171088e+00 1.8814181034997215e+00 1.8776874563536499e+00 0 0 0
3770 1 9.8958577364388933e-01 3.7454044742973207e+00 8.6941348755220371e+00 0 1 0
1144 1 5.9262218170757626e+00 6.7127886746688405e+00 1.6999068553010890e+00 0 0 1
1358 1 5.5447909563024318e+00 5.8048744287705754e+00 5.7057520261637054e+00 0 0 0
2779 1 2.3314247502599867e+00 3.8068989922719214e+00 7.0769824106934980e+00 1 0 0
4106 1 3.0605915330517095e+00 2.9151326621907971e+00 7.9876107716599307e+00 0 1 0
358 1 6.4979733540795088e+00 1.2168221142186930e+00 5.8301727125129972e+00 0 0 0
2750 1 1.0831040005254144e+00 1.6878661402452306e+00 3.9550508500897585e+00 1 1 0
144 1 5.6991023353176864e+00 8.4384084361012701e-01 1.5607995245092332e+00 0 0 0
3865 1 2.1374973823469317e+00 1.8345481830827312e-01 7.7890457426108748e+00 1 1 0
112 1 1.0182759487125825e+00 2.4921007831319506e+00 3.6499065127339830e-01 0 0 0
500 1 5.1914430723526692e+00 5.5880977216105077e+00 6.6870458130570167e+00 0 0 0
2672 1 3.2638681136296337e+00 5.5228976055224992e+00 5.6186327754963807e+00 0 0 0
1421 1 2.6540074122358388e+00 6.5008470104604026e+00 3.5909207721100631e+00 0 0 0
3742 1 3.0921835499353825e+00 4.3355044685665600e+00 6.3053058069136112e+00 1 1 0
364 1 5.1103971545192781e+00 2.4661783749700050e+00 5.7870031304226668e+00 0 0 0
2802 1 2.0344058997997174e+00 1.3597450165050766e+00 4.1407800720149002e+00 0 0 0
1147 1 3.2813843495001302e+00 2.5589739568351078e-01 2.7347892209076887e+00 0 0 1
393 1 3.6210267405361063e+00 3.9823619426657815e+00 5.4251510803891323e+00 0 0 0
2706 1 4.6974659411163984e+00 2.6931775794662203e+00 4.8977568357168790e+00 0 0 0
4270 1 4.5442365083088996e+00 6.2820644946314390e+00 7.2121449087324612e+00 0 0 0
1188 1 4.2210739750363997e+00 1.1017388726501784e-02 3.1120629279142156e+00 0 0 1
170 1 1.1743531138959100e+00 6.7826725204264831e+00 2.1693811813666515e+00 0 0 0
1180 1 4.5873522627891266e+00 2.7526898283951109e+00 2.1081401846460562e-01 0 0 1
1536 1 4.8105309751734548e+00 4.7972092487856024e+00 7.1605981897872928e+00 0 0 0
3144 1 5.1595322154286185e+00 4.4963089664539853e+00 5.2786117377833230e+00 0 0 0
3869 1 1.0395305113535547e+00 1.1391876223246691e+00 2.7916213827733398e+00 1 1 0
395 1 3.0274902128415055e+00 2.2755977880717011e+00 5.2242343631126120e+00 0 0 0
293 1 5.8112643975093139e+00 4.8722001205123822e-01 4.4939916163449993e+00 0 0 0
436 1 3.4480907715697109e+00 5.0721668171660317e-01 3.6177093558920350e+00 0 0 0
380 1 1.6312673960713588e+00 1.6194934402331764e+00 8.7294785306806073e+00 0 0 0
2537 1 5.4289597780102072e+00 2.1569257046326933e+00 4.9633844609896967e+00 0 0 0
228 1 5.3855913385496752e+00 3.0150376359845183e+00 4.2979898712485269e+00 0 0 0
2785 1 1.2984499714825541e+00 5.4565281984117169e+00 4.9058563225146976e+00 1 0 0
3912 1 5.3419276885811700e+00 3.7115294194869530e-01 7.4656422635517004e+00 1 1 0
1613 1 1.4856268313545355e+00 8.3820241942660495e-02 4.8473534340832307e+00 0 1 0
3837 1 8.7524783534249817e-01 6.8385850597513196e+00 3.7963182877495751e+00 1 0 0
2411 1 1.8023150613376815e+00 3.2140774792718330e+00 5.1178958410898376e+00 0 0 1
1156 1 3.3713568292282319e+00 4.1753861365824978e+00 2.5692457258132739e+00 0 0 1
103 1 6.2293232531607075e+00 1.2474602022116454e+00 2.2487567975706511e+00 0 0 0
3904 1 3.6277327247609263e+00 3.7962307410717744e-01 8.5991537563158946e+00 1 1 0
1220 1 2.7866645826058944e-01 4.0583720187580772e+00 2.0843972428636953e-01 0 0 1
1422 1 4.7922051189603438e+00 5.2749003750651235e+00 5.6963968325486523e+00 0 0 0
1167 1 4.2331220268911833e+00 3.3609495355374546e+00 1.0981963950694338e+00 0 0 1
1931 1 3.8738902579614529e+00 3.4643382754471803e+00 8.3771309603185262e+00 0 0 0
4774 1 1.1425962646944743e+00 4.4857475475204804e+00 6.0273457863818800e+00 1 1 1
2763 1 1.6064706353877986e-01 5.5453792660600696e+00 6.6314131495962307e+00 1 0 0
1013 1 4.4919435499979370e+00 3.9589117080792202e+00 4.8288928861164466e+00 0 0 1
1602 1 3.6640345931518956e+00 4.6654707607569508e+00 1.4994121492365056e+00 0 1 0
1340 1 3.1019219817679899e+00 5.4398137039275944e+00 6.6760520119520592e+00 0 0 0
3665 1 1.9003585445395075e+00 2.6015884846075004e+00 2.7608239494706890e+00 1 0 0
1598 1 8.1185639887342531e-01 5.8328193455073079e+00 8.6858794457211452e+00 0 0 0
1375 1 2.0290320594539968e+00 3.8988526200569457e-01 5.5196620224277693e+00 0 1 0
4732 1 4.4549206341378550e-01 1.0668238639020007e+00 7.2425435167109453e-01 1 1 1
2643 1 2.1142668270314147e+00 5.4053281933412336e+00 1.5054195672906903e+00 0 0 0
1546 1 4.0681662513859056e+00 8.9176341684751370e-01 4.3988182032097054e+00 0 1 0
1181 1 4.0486041125007413e+00 5.1686971867000192e-02 2.0762576965808828e+00 1 0 1
1303 1 3.3663065070448597e+00 6.7102428878018898e+00 4.9935195081803121e+00 0 0 0
3621 1 3.9652630348191988e+00 2.4003868648354092e+00 5.5701902175579132e+00 0 0 1
4744 1 5.1251350728732179e+00 6.7702835058363267e+00 5.4565125056031247e+00 1 0 1
1543 1 2.4547833614019926e-01 1.1185357566696574e+00 3.6162000324813861e+00 0 1 0
1509 1 4.0065314753866526e+00 2.4010404345376610e+00 9.4039184150295330e-01 0 1 0
2734 1 9.8566523357240876e-01 4.2807237431639539e-01 5.7384566519820908e+00 0 0 0
4100 1 3.2173490956375992e+00 3.4109044982575405e+00 1.8657883069807670e+00 0 1 0
1372 1 2.4163893206078724e+00 2.6194734178634038e-01 1.1131553944735573e+00 0 1 0
3847 1 1.2424224168223752e+00 4.6558115732056221e-01 8.1784032175274710e+00 0 1 0
1837 1 1.5757962057589510e+00 3.1177288085008814e+00 7.3668135620782023e+00 0 0 0
329 1 1.8079037971055090e+00 6.8156547865385848e+00 6.3856710938492851e+00 0 0 0
250 1 2.8079634757219716e+00 3.2136466955984577e+00 5.6225450572058930e+00 0 0 0
486 1 2.4772317110560169e+00 9.7636674036924664e-01 6.2982958709853847e+00 0 0 0
1591 1 2.0672919069127130e-01 2.1686791669373036e+00 5.8952615498888470e+00 0 1 0
4628 1 4.0632646121040423e+00 5.1230132772507426e+00 2.4529921775337113e+00 0 0 1
2380 1 2.0443976392142041e-01 4.6269322951822334e+00 1.6032788296394749e+00 0 0 1
327 1 4.3481952711996730e+00 3.0621705967375505e+00 3.9363799173572125e+00 0 0 0
2611 1 2.2465418240183284e+00 3.4813083055894838e+00 3.6638511578418176e+00 0 0 0
4806 1 1.1142842238206965e+00 1.2102381251948118e+00 4.9603650580036796e+00 1 1 1
1270 1 4.3396680307230684e-01 3.9810677025700919e-01 4.8301205851645683e+00 0 1 0
2847 1 4.0724432380836229e+00 5.2508724058882783e-01 5.8380765147973257e+00 0 0 0
303 1 2.9392008054000325e+00 4.6305415232311411e+00 7.5137747651325562e+00 0 0 0
2671 1 1.1489475183910374e+00 4.8821145112251809e+00 8.0351914380418421e+00 1 0 0
365 1 5.4813700446124907e+00 1.7985037099112058e+00 3.1001305927836618e+00 0 0 0
2482 1 5.9028433596204444e+00 6.6049911139447106e+00 4.4339828992153567e+00 0 0 0
3585 1 5.9264521410336064e+00 6.6252771599108726e+00 5.3734709336066455e-01 0 0 1
4584 1 2.6406720300969049e+00 1.8143010759818730e+00 1.5747272896320508e-01 1 1 1
282 1 6.4696936930888160e+00 4.2051290875111311e+00 2.1965772076456118e+00 0 0 0
357 1 7.6279488902479142e-01 6.0829690579298195e+00 2.9521303421337519e+00 1 -1 0
27 1 1.8287344864237147e+00 2.5647472755557206e+00 9.7991185442614237e-01 0 0 0
4334 1 6.4306230732434484e+00 2.7353699022412941e+00 8.4169337700875761e+00 0 0 0
2827 1 4.0984870860484274e-01 1.8845441321913712e+00 7.8084592182483004e+00 0 0 0
2582 1 3.5196059265179351e+00 4.7665758721839131e+00 3.3423079176723287e+00 1 0 0
1190 1 5.1965292069724871e+00 3.6121427061421203e+00 2.6910517552896023e+00 0 0 1
497 1 3.8372729282982192e+00 2.4444350338166361e+00 8.4097751606757321e+00 0 0 0
2804 1 5.3271752047157817e-01 3.0050172009266221e+00 2.6405971175420335e+00 0 0 0
3702 1 4.3923984715075211e+00 3.4564506346113308e+00 5.7674734911228933e+00 0 0 0
1460 1 2.0274452494984030e+00 1.4216110949963656e+00 2.8145936520288428e+00 0 1 0
2494 1 5.6048113987962740e+00 5.2026005808383768e+00 9.8737112100486835e-01 0 0 0
1088 1 2.4711421282837649e+00 4.3129477364486029e+00 2.8036352572170014e+00 0 0 1
2678 1 9.2691003332267052e-01 5.7828591022288309e+00 4.0495986465723259e+00 1 0 0
1132 1 1.8906066251141389e+00 9.9473258753439509e-01 1.8173703795181533e+00 0 0 1
322 1 5.1760582819574807e+00 3.6657234395180640e+00 8.6343067444006856e+00 0 0 0
342 1 3.5201042337087283e+00 3.1791826787114976e+00 3.4073326517727709e-01 0 0 0
176 1 1.7517747112706028e+00 4.5628840987555961e+00 2.0416672172556312e+00 0 0 0
1208 1 6.1095021607543245e+00 4.1903179929134167e+00 1.3002959879140805e+00 0 0 1
98 1 3.4543165197212460e+00 3.9938982762763038e+00 8.4972062055555408e-01 0 0 0
3629 1 2.1643878213693521e+00 3.8587200646195137e+00 5.8839975300072016e+00 1 0 1
3734 1 3.9003298520414220e+00 6.0276449689250455e-01 8.1625359057654368e-01 0 1 0
258 1 4.0124270717414223e+00 6.8244322785785290e+00 1.0794670976516436e+00 0 0 0
3619 1 3.8980883691826280e+00 1.8995314131398244e+00 4.4370068972560173e+00 1 0 1
2435 1 6.3990845055192329e+00 3.5893132964813228e+00 4.8633137702685429e+00 0 0 0
1173 1 4.3879369514087507e+00 5.2963352462052962e+00 8.1536864672478881e-01 0 0 1
1521 1 1.3497309200952448e+00 6.4586202582168397e+00 1.1786243512902697e+00 0 0 0
2863 1 2.0351996746355132e+00 3.1241673678641688e+00 6.4640505455967334e+00 0 0 0
2524 1 2.9813628295558581e+00 1.4913312290750298e+00 3.6586017513230997e+00 0 0 0
225 1 1.2881550016487848e+00 3.9354447686767449e+00 6.8220195355178337e+00 0 0 0
1684 1 2.7269441970880459e+00 4.7411917525360936e+00 5.5251474763422204e+00 0 1 0
278 1 5.5442356468267899e+00 6.3489337683663667e+00 2.7681837099365043e+00 0 0 0
1878 1 6.9459719643540152e-01 5.1437121614127541e+00 3.2434268412965062e+00 0 0 0
4682 1 1.6208472657021196e+00 3.5296868145849296e+00 2.7378791221805643e+00 0 0 1
1235 1 1.0604395174136625e+00 1.7080926103499783e+00 1.2076518231810232e+00 0 1 0
3975 1 5.7217675455202699e-01 2.9971706531927618e+00 4.3481350023717358e+00 0 1 0
998 1 1.2962581349792599e+00 2.8299157037113774e+00 1.7520390937081007e+00 0 0 1
1607 1 4.0920173321593039e+00 5.6389621988724006e+00 6.4520051212204983e+00 0 0 0
2795 1 4.4072120414903893e+00 3.9289471634886626e+00 6.9894652567201945e+00 0 0 0
3117 1 5.9829692986268022e+00 4.3832933296477516e-01 5.5474913805943560e+00 1 0 0
982 1 5.2377256384265101e+00 1.3277284988287441e+00 4.4303999040525266e+00 0 0 1
2042 1 1.2141596383423716e+00 2.8495002464005306e+00 3.6088796336985749e+00 1 1 1
150 1 2.9760768444640773e+00 1.1396690122016340e+00 8.0740644748398827e-01 0 0 0
143 1 4.2801424676789592e+00 1.8057793990180699e+00 2.2830949278488961e+00 0 0 0
1412 1 1.8779864574119409e+00 5.4625756644406227e+00 2.4363932027980995e+00 0 1 0
3673 1 3.5113863627602462e+00 2.4543489648797463e+00 1.8730496654750395e+00 0 1 0
3759 1 4.8740529567710436e+00 5.0738653347947995e+00 1.6599219422936655e+00 0 0 0
2681 1 1.1000505654947255e+00 3.0919211232309024e-01 2.2111194157604825e+00 0 0 0
2976 1 5.5820889034279473e+00 4.8780086873158375e+00 3.9207794139353718e+00 0 0 0
2577 1 2.9461756220994770e-02 3.6497384793968415e+00 7.4045740831592246e+00 1 0 0
1405 1 5.2271376300797918e+00 2.5796997198505487e+00 1.1864715194947286e+00 0 1 0
730 1 5.8073431616566804e+00 5.3377691882400891e+00 7.6524897454964522e+00 0 0 0
2664 1 4.4022823449890280e+00 6.3963888379603411e+00 5.9667228762779931e+00 0 0 0
26 1 8.7354219559868707e-01 4.2109139786257739e+00 9.5750499936904332e-01 0 0 0
3672 1 3.7513810289352838e+00 1.4029538036311753e+00 1.3323496835570448e+00 0 1 0
4009 1 5.7835856310566252e+00 1.9854877676336105e+00 8.0690991031147874e+00 0 1 0
1203 1 2.9013942052616506e+00 2.1381496897933356e+00 2.7377752804014572e+00 0 0 1
1485 1 1.7262619034791771e+00 4.4586999124842084e+00 5.2148414886006496e+00 0 1 0
510 1 5.7031911820629562e+00 4.3116155075791704e+00 7.0885409555838725e+00 0 0 0
4787 1 2.8253155670697672e-01 1.1369989124395334e+00 1.8296122075483530e+00 1 1 1
3868 1 4.8748283774419532e+00 5.9280034654567366e+00 3.7832144751996561e+00 1 0 0
1470 1 2.3755373223162972e+00 4.9815574866579304e-01 4.6095435580656119e+00 0 1 0
2503 1 5.8900440181689202e+00 5.8040946818266823e+00 8.6173522944780743e+00 0 0 0
1020 1 9.5046927923600566e-01 5.4775873630031295e+00 2.2100120478724326e+00 0 0 1
2758 1 9.6842900739000648e-01 2.7286833129097379e+00 5.3727468768053477e+00 0 0 0
2395 1 3.2823961848165943e+00 6.1672897556132398e+00 2.8676604580069043e+00 0 0 1
2548 1 2.8747008542223491e+00 5.9142123073121891e+00 6.8596589879581157e-02 0 0 0
399 1 4.7320418215669688e+00 1.6129652073730389e+00 8.4915267619288350e+00 -1 0 0
3018 1 5.2277775121344190e+00 3.6684095617713557e+00 6.4618924994311833e+00 0 0 0
2533 1 7.1449348454107486e-01 4.4248530024642498e+00 2.4551032821305627e+00 1 0 0
742 1 8.1623657593458776e-01 4.1044062593167707e+00 7.6926012177479990e+00 0 0 0
1207 1 1.4921842229380371e+00 4.4832621476701746e+00 3.0931316466544594e+00 0 0 1
1407 1 1.1088928087021308e-01 9.7583382570812383e-01 7.4700601857077489e+00 0 1 0
3777 1 5.8356107940814486e+00 8.4439463731995990e-01 3.4111549171262561e+00 0 0 0
4004 1 5.0436788280192895e+00 3.8849890348284428e+00 3.6984026187497494e+00 0 1 0
3939 1 3.4286277533664253e+00 2.6010094391379703e+00 6.7893115122771883e+00 0 1 0
547 1 3.1678633317128710e+00 4.7032720621121991e+00 4.6713483861852296e+00 0 0 0
1386 1 5.2155915847156429e+00 6.4990620583918783e+00 8.5025397683511841e+00 0 1 0
109 1 1.9206161850134178e+00 4.0996609776227855e+00 4.3494442132250013e+00 0 0 0
1479 1 2.8984416130889525e+00 6.4558773409956984e+00 5.9062669415518467e+00 0 1 0
2479 1 5.0797940942540158e+00 4.6229504125268877e+00 6.6504394334130773e-02 0 0 0
1464 1 2.3177102584523599e+00 4.8269834424765463e+00 8.2357597591896692e+00 0 1 0
1240 1 6.4764423088655034e+00 1.2693504880934920e+00 1.1147449071423670e+00 0 1 0
2174 1 4.1005897550801178e+00 8.4117603037822741e-01 2.6131909408832192e+00 0 1 1
1478 1 5.9269511843173994e+00 5.1961510338907425e-02 2.6665606258321075e+00 0 1 0
974 1 1.0837742912265724e+00 3.6475583358082262e+00 4.8239975603355933e+00 0 0 1
1374 1 6.0633470583239006e+00 5.1579180949470258e+00 2.8772769079979046e+00 0 0 0
3774 1 1.2112849631068727e+00 1.7963705376605386e+00 5.7409611677484680e+00 1 1 0
4016 1 3.6026768252768293e+00 3.4672746280896591e+00 6.4049619912772968e+00 0 0 0
2657 1 4.7586676485608459e+00 1.1665998152104398e+00 3.3582378149148000e+00 0 0 0
332 1 5.5683324131553782e+00 4.0394955399137826e+00 4.5045930322642791e+00 0 0 0
4824 1 2.6351296170994287e-01 6.0897935255103093e+00 5.6571464504047364e-01 1 0 1
1163 1 5.0527877483582726e+00 5.6313841667796831e+00 1.0746847005648982e-01 0 0 1
290 1 1.7394741388112209e+00 5.8236026340931764e+00 3.3675508138670258e+00 0 0 0
603 1 2.3376164108898334e-01 1.1760132867786759e+00 5.5319236265891680e+00 0 0 0
2294 1 4.6985103687727170e+00 1.0478077510377095e+00 1.8918479365099279e+00 0 1 1
1696 1 4.2928554761405433e+00 4.4914187568870325e+00 6.0889533841961363e+00 0 0 0
243 1 1.3782613148540928e+00 5.7376758429437382e+00 7.5435663931411598e+00 0 0 0
4179 1 5.6198280283695539e+00 1.0391995935243667e+00 6.3527429136825839e+00 0 0 0
3848 1 2.4751967482267827e+00 6.0011210546604421e-01 3.6118349530140277e+00 1 1 0
1253 1 4.2664168293647480e+00 6.4841712542761911e+00 3.0433676643942387e+00 0 0 0
321 1 3.5654538072498032e+00 6.4337598698308334e+00 7.9322969275181894e+00 0 0 0
2914 1 6.6914292408341325e-01 1.2550489035752932e+00 8.6593323595357408e+00 1 0 0
2679 1 1.1269343136367638e+00 2.0831526159688090e+00 3.0043735593116194e+00 1 0 0
408 1 6.1224669233217712e+00 3.4733911505212283e+00 3.7984283339152469e+00 0 0 0
147 1 3.9328050931383003e+00 1.5551019739362530e+00 6.4361957996480097e+00 0 0 0
1434 1 3.2878194260656133e+00 1.6587790592504390e+00 7.1769823607385819e+00 0 0 0
1455 1 5.4471969071012094e-01 2.4839654746005663e-01 3.2443703053954338e+00 0 1 0
3786 1 6.3843492852176764e+00 2.8554489062578825e-01 9.5796875115847080e-01 0 1 0
2773 1 5.1266597129398201e+00 4.1676842873308440e-01 2.8835128188180597e+00 0 0 0
81 1 6.0476029840126726e+00 5.9455221047809728e+00 3.5412143136475374e+00 0 0 0
219 1 7.3496281659244189e-01 1.9748748884132501e+00 2.1341844867431132e+00 0 0 0
3864 1 2.1578426920538076e+00 4.2737076150576903e-01 2.5829215505872249e+00 1 1 0
324 1 6.2908875491015053e+00 4.4814001314948264e+00 5.2766252727732228e+00 0 0 0
463 1 1.7971679310908595e+00 3.9824196788154169e+00 8.0427097788424202e+00 0 0 0
318 1 3.3246995018949779e+00 4.9194181745372338e+00 8.4484862898864588e+00 0 0 0
4276 1 1.2564758999270207e+00 3.5158901102071241e+00 5.8641844262729022e+00 0 1 0
2589 1 4.6644993616173043e+00 6.6243899450987307e+00 2.6433833658835471e-01 0 0 0
615 1 5.5768659035717096e+00 1.0134237090292415e+00 8.2505377642270226e+00 0 0 0
1189 1 1.1794981966692786e+00 5.3742950073753430e+00 2.6657733307361925e-01 0 0 1
3199 1 2.0736170182724507e+00 2.8567713395054875e+00 8.2908380512508568e+00 1 0 0
2332 1 2.0264153399652050e+00 6.3489231144121412e+00 1.9566174454985132e+00 0 0 1
3463 1 2.3587070826053704e+00 8.6705483157834562e-01 1.2175548390654699e-01 1 0 1
325 1 2.8489383064379328e+00 1.6908606900849183e+00 1.7692572415600720e+00 0 0 0
400 1 3.4823505053862989e+00 5.9748613879178691e+00 8.3340327547965831e-01 0 0 0
2782 1 3.1465918060994054e+00 2.7001630496193929e+00 3.7914234213224867e+00 0 0 0
2885 1 4.6332643818995409e+00 1.4226211487837206e+00 5.4476194609911506e+00 0 0 0
192 1 4.0005259085665736e+00 5.6521223604486801e+00 3.8505676493992107e+00 0 0 0
287 1 2.3187482671904434e+00 5.1849460781325636e+00 4.6480246771741420e+00 0 0 0
2586 1 2.8307868866244337e+00 2.4724741224268354e+00 9.1626351827468400e-01 0 0 0
165 1 4.8475728077447160e+00 6.2881315467512477e-01 5.1816625751660339e-01 0 0 0
1531 1 1.1043045560857045e+00 1.1784867031144599e+00 7.5221827129779442e+00 0 1 0
54 1 2.2695399302245978e+00 5.6971063409204747e+00 5.7025043095778214e+00 0 0 0
71 1 6.4461772738884253e+00 5.0791882609665073e+00 1.7970628779833788e+00 0 0 0
3667 1 2.6841476084242197e+00 4.4359976020116259e+00 1.3534502088233435e+00 0 1 0
389 1 2.5437786108431624e+00 4.5925705226046434e+00 3.7787255475100947e+00 0 0 0
3424 1 2.3400520603779040e-01 4.9847710772744307e+00 6.2403714608789673e-01 1 0 1
2601 1 4.2567365729379034e+00 2.0462325501850844e+00 7.3836893571275457e+00 1 0 0
4465 1 2.4175767889476036e+00 2.6020255687400722e+00 1.9397366441154353e+00 1 0 1
4839 1 3.0757619675038117e+00 6.7619656631732206e-01 1.7395963824524190e+00 0 1 1
3396 1 5.8529351608761386e+00 4.2320410816071368e+00 3.2142048835085411e+00 0 0 1
1790 1 7.9362249651546335e-01 6.6934207425271417e+00 8.1488570388148034e+00 0 1 0
2874 1 6.2951085447045179e+00 2.8372098947765108e+00 6.6454007588923858e+00 0 0 0
1261 1 3.3000629525687524e+00 3.6782579704635836e+00 7.4753320986054410e+00 0 1 0
187 1 1.8726124306577017e+00 5.8873673561037716e+00 6.3586685594404579e-01 0 0 0
205 1 6.3490063311429603e+00 5.8807640076364445e+00 1.2845528965403858e+00 -1 0 0
2815 1 3.5306116515238566e+00 6.4451655741983966e+00 6.7685995970384489e+00 0 0 0
449 1 4.6291930234500285e+00 4.8424698932818018e+00 3.4084673240496048e+00 0 0 0
3969 1 2.1303456078683123e+00 4.8356426754626032e+00 6.2717250349310332e+00 1 0 0
3983 1 1.6440647554557830e+00 2.7526902657888591e-03 6.8995687471338281e+00 0 1 0
169 1 1.4982599197368199e-02 3.8816892154662699e+00 4.5819649179093611e+00 0 0 0
2563 1 4.7381973111695572e+00 4.7895749252523245e+00 4.4380295637053413e+00 0 0 0
4826 1 1.0316707264129914e+00 2.2791917266555539e+00 8.4719364710986387e+00 1 0 1
3769 1 5.1956233029187393e+00 3.5448675062701844e+00 1.7363698073638554e+00 0 0 0
2669 1 1.1730179656795934e+00 6.6625196179763559e+00 5.6968103887819073e+00 0 0 0
2523 1 2.3051196346187180e-01 2.1572714926536576e+00 7.3334035640150774e-01 1 0 0
344 1 4.1736441325383353e+00 1.0499333192245826e+00 7.7724599951088509e+00 0 0 0
222 1 1.5327955114569665e+00 2.2553672459517702e+00 4.6364830001450947e+00 0 0 0
2388 1 3.0972872309923821e-01 3.8980556041268137e+00 5.5027321440527741e+00 0 1 1
95 1 1.0662243336913584e+00 5.3661487888011736e+00 1.2067779867924127e+00 0 0 0
1152 1 6.2051105385553553e+00 3.2186624869031197e+00 1.5579057199953135e+00 0 0 1
1068 1 2.7128440234264857e+00 5.2365099906562245e+00 6.7415053418314064e-01 0 0 1
2466 1 6.2263614450660612e+00 2.0961775637193618e+00 1.7013889963279278e+00 0 0 0
4028 1 5.4768830775645734e+00 2.7605674202697652e+00 2.1741259454471535e+00 0 1 0
2864 1 5.0417638928494375e+00 3.9775557647703241e+00 7.7470010308983088e+00 1 0 0
244 1 1.5404836052123345e+00 6.9475567836388130e+00 8.6225725107066715e+00 0 0 0
301 1 4.9457768263074103e-01 3.3079994760152873e+00 6.5427482807332833e+00 0 0 0
1622 1 2.7092333501527714e+00 6.5589681323810280e+00 7.2596467602597725e+00 0 0 0
1305 1 6.3112022593575166e+00 4.1356180467415431e+00 7.9746511060987286e+00 0 0 0
2960 1 1.7746984354657083e+00 5.5735783113845407e+00 8.5879073093617446e+00 0 0 0
3803 1 6.0706842746084897e+00 3.1431350097611062e+00 7.5898244237467045e+00 0 0 0
421 1 6.5398144035049244e+00 5.8924898639750989e+00 7.2902366369183405e+00 0 0 0
3466 1 1.7352945850993660e+00 4.7628058009334122e+00 8.5775113890633692e-01 1 0 1
1368 1 5.6429052480477226e+00 5.7132770166044393e+00 1.9859445742994872e+00 0 0 0
133 1 4.1013086064598596e+00 6.0889822484763574e+00 5.0449731823678343e+00 0 0 0
295 1 4.6466721567660416e+00 8.8764252714337211e-01 6.9122576624886820e+00 -1 0 0
2634 1 5.0541728693579762e+00 2.6441989454440074e-01 6.0712492746616684e+00 0 0 0
392 1 2.7749867698828150e+00 3.6605259856122756e+00 4.6822856550520955e+00 0 0 0
4835 1 3.8247286066028909e+00 1.6625138466791367e+00 3.2256517323018210e+00 1 1 1
412 1 2.5561404633953519e+00 7.3663472905197058e-01 8.5135638741349773e+00 0 0 0
2675 1 5.9342820084317216e+00 1.1445371113592721e-01 6.6363318468532349e+00 0 0 0
4092 1 3.4179582353879936e+00 7.0399110201451842e-01 6.6672223435201143e+00 0 1 0
3614 1 1.8116035279445586e-01 2.2222122735817269e+00 3.5046937570698216e+00 1 0 1
383 1 3.7420426070556516e+00 2.8601931087285957e+00 2.9247900688014221e+00 0 0 0
2733 1 2.9006436063227738e+00 1.8440055468949805e+00 6.1999981946487042e+00 0 0 0
2490 1 1.9207786117068055e+00 1.8020428165213898e+00 6.4159065228788421e+00 1 0 0
17 1 5.7728591545538714e+00 5.2757675838554050e+00 4.7587349111946358e+00 0 0 0
1226 1 1.4358676085881303e+00 6.3928614742131211e+00 4.7593042129650280e+00 0 0 0
920 1 3.6139894773566854e+00 4.8809325986298226e+00 3.8984181654620043e-01 0 0 1
94 1 4.6869394579163559e-01 3.1465133412952873e+00 7.9931912796638571e-01 0 0 0
424 1 4.1557737586002688e+00 3.1825225176308383e+00 7.4791450686480818e+00 0 0 0
3023 1 4.2853399857576484e+00 4.6479634477556342e+00 7.9676004308101032e+00 0 -1 0
172 1 5.5331560372854041e+00 3.4506308159552628e+00 6.8547913683051331e-01 0 0 0
4008 1 2.3219950218314258e+00 6.4276636892494050e+00 8.3774026951069374e+00 1 0 0
2760 1 1.7436676237987643e+00 6.6147385225044308e+00 7.5406105323067276e+00 1 0 0
3850 1 4.7722672243891893e+00 2.1905915716510060e+00 3.9021957679471941e+00 1 1 0
298 1 3.7764513090720442e+00 4.7058583277901196e+00 6.9872552050798644e+00 0 0 0
1637 1 1.2803447048227554e+00 8.8346146869026976e-01 6.5506655115391625e+00 0 1 0
960 1 1.7887597960797255e+00 3.6767029192123535e+00 9.5291490547657720e-01 0 0 1
179 1 3.9394984260010570e+00 5.8628313265875676e+00 1.7921227113153901e+00 0 0 0
2345 1 2.1547415842548743e+00 1.5926431316514533e+00 1.0520390350104594e+00 0 1 1
274 1 2.9484719682476319e+00 6.0073099218789858e+00 1.7317999534217245e+00 0 0 0
2704 1 2.5327613854683948e+00 5.5858045939223517e+00 7.7665565419643627e+00 1 0 0
1320 1 6.5597076564625800e-01 1.6845821763402129e+00 6.7699106901600796e+00 0 1 0
128 1 5.1738710452330050e-01 4.8765772926116684e+00 8.7458153493782831e+00 0 0 0