LAMMPS data file via write_data, version 17 Nov 2016, timestep = 40000

4359 atoms
1 atom types

0.0000000000000000e+00 1.2326572389769122e+01 xlo xhi
0.0000000000000000e+00 1.1645590724866818e+01 ylo yhi
0.0000000000000000e+00 3.2938704689905954e+01 zlo zhi

Masses

1 1

Atoms # atomic

356 1 1.6024647121396021e+00 4.2976271617301259e-01 9.0347639595717766e+00 0 1 0
1373 1 6.3441514772773144e-01 3.1853595124521377e+00 6.5442353198360435e+00 1 0 0
1472 1 5.4520818187382964e+00 5.0398716197720947e+00 1.0195337356744846e+01 0 0 0
3514 1 5.6724079181051819e+00 4.2607768783844104e+00 6.0117748847768002e+00 0 1 0
1402 1 4.6173881852073695e+00 5.0904467643575178e+00 2.0034859675632664e+00 0 0 0
3316 1 7.7231459042462786e-02 8.8775253296295220e-01 7.8218295572875318e+00 1 1 0
478 1 5.0502597634834325e+00 3.0884223462077327e+00 9.9309563107844099e+00 0 0 0
228 1 2.9520386922338121e-01 4.7192923370996525e+00 4.1269216425087825e+00 0 0 0
2525 1 3.4176017151787192e+00 2.2757961326608322e+00 5.4403424999000887e+00 0 0 0
1499 1 3.9382077419136277e+00 3.7034386953581611e+00 8.4191417081229130e+00 0 1 0
3270 1 8.1764145607732575e-01 4.8194189765504660e+00 1.5566827572478696e+00 1 -1 1
1179 1 4.4496859350403692e+00 3.7864030450201591e+00 3.1543588259734237e+00 0 0 0
1240 1 5.7070211557812520e+00 1.9426421827821008e+00 6.9307473861279218e+00 0 1 0
918 1 3.4013981649709324e+00 5.3412833229488879e+00 1.9170020099480303e+00 0 -1 1
223 1 1.5991167843211671e+00 1.0349190855662878e+00 2.0591662562422779e+00 0 0 0
112 1 5.9252368067995738e+00 2.4099546957972757e+00 1.8649401907482632e+00 0 0 0
126 1 4.5907497382229536e+00 2.9972055336851069e+00 1.5716949689640394e+00 0 0 0
276 1 3.6547920148697566e+00 3.5751614261069284e+00 3.6874621278905830e+00 0 0 0
2240 1 4.8339353734251098e+00 4.7092957395449693e+00 3.0331660907652056e+00 1 0 0
348 1 3.8869656254929104e+00 5.0912580565505552e+00 2.9527902069376193e+00 0 0 0
1585 1 4.4737991783433468e+00 4.6899121214329470e-01 7.7264419792230052e+00 0 1 0
995 1 3.4471102075023516e+00 2.9844050602824321e+00 2.0957224249180526e+00 0 0 1
88 1 5.2992389585244020e+00 5.4116546614639627e-01 1.8198109083747354e+00 0 0 0
1232 1 8.4427232783308193e-01 2.7294307274757408e+00 7.4485247191013055e+00 0 0 0
3441 1 3.5168915632523432e+00 5.6218288851024294e+00 8.3390024797392714e-01 1 0 0
2300 1 6.0831478200252107e+00 1.4219249705971111e+00 1.4850597730031629e+00 0 0 0
1376 1 2.7272066992103725e+00 9.2332972115902234e-01 6.4870435151552606e+00 0 1 0
2332 1 1.4864344360904755e+00 2.6928060131172540e+00 6.1616711352616493e-01 1 0 0
381 1 9.1023495172330249e-01 1.7745460078491462e+00 1.0425862033978348e+01 0 0 0
3334 1 6.1034802066877099e+00 1.8141412929426728e+00 3.7621452927040300e-01 0 1 0
1290 1 4.5540930174220490e-01 2.3269844452402899e-01 5.9913719217884811e+00 1 1 0
3580 1 2.3726817154609323e+00 7.9114921538735339e-01 1.0931651599132923e+01 0 1 0
3275 1 1.1279698205817041e+00 5.7056395947031620e+00 1.9966696906568993e+00 1 0 0
73 1 5.7873580491782208e+00 5.3172049298474500e+00 1.5935300280351132e+00 0 -1 0
363 1 2.9647994480994839e+00 5.0558177540163438e+00 7.4666962638815537e+00 0 0 0
189 1 3.9476327403171165e+00 4.0993670957486597e+00 4.6794812381443665e+00 0 0 0
2272 1 2.1203511140014442e+00 5.1590799599373094e+00 3.9476109056594146e+00 1 0 0
2345 1 4.3384742559153784e+00 5.5565645561907733e+00 6.8578006420294404e+00 0 -1 0
962 1 2.7688472923762499e+00 4.3603419002841584e+00 1.5663931443157182e+00 0 0 1
48 1 3.5350284966923118e+00 4.1854345719367965e+00 2.5013239708826727e+00 0 0 0
271 1 2.8044490022008848e+00 2.5373161931500783e+00 7.3783130134467072e+00 0 0 0
3344 1 1.3897479619741322e+00 3.6853505308307843e+00 1.7303922750200553e+00 1 0 0
169 1 2.0880238570933103e+00 3.8678475891681154e+00 3.7679161384155408e+00 0 -1 0
2909 1 2.6163887522638176e+00 2.7775915194504330e+00 3.7890713232963056e+00 1 0 1
3489 1 1.6917700118175363e+00 3.6735323767344101e+00 1.0397470300417750e+01 1 1 0
1312 1 5.7783226311473790e+00 5.7234437897560113e+00 2.3730102057657906e-01 0 0 0
305 1 2.6689855283095123e+00 4.1222809369663231e+00 9.9422392095384549e+00 0 0 0
3262 1 2.4423439216768905e+00 2.4164378965118538e+00 4.9628713611537032e+00 1 0 1
2230 1 3.7271826916079691e+00 3.5191720815565337e+00 1.0319537873200844e+01 1 0 0
50 1 2.8398202005720292e+00 4.4958884858254580e+00 3.8112793624704731e+00 0 0 0
3302 1 3.5056504220207048e+00 9.6044250112801377e-01 1.6855166778913320e+00 1 1 0
3778 1 3.8621517382331558e+00 1.3896119252238317e+00 9.3506736395272565e+00 0 0 0
2335 1 5.8119414571228321e+00 3.6919174358939495e+00 4.4386395550157394e+00 0 0 0
1424 1 5.3459093602424499e+00 3.0884904160693796e+00 7.0905228813986536e+00 0 1 0
257 1 1.6806213614238623e+00 1.3302877657772760e+00 9.7018923008535953e+00 0 1 0
1371 1 1.0896096348958513e+00 5.6134547181241814e+00 8.0713536113322775e+00 0 0 0
295 1 3.4766136141264359e+00 4.6801180764839874e+00 8.8994672581504926e+00 0 0 0
1357 1 2.1519846771522699e+00 8.1728315974516441e-01 8.2983423857190477e+00 0 1 0
1986 1 3.0402488413297033e+00 1.7826476318377120e+00 3.3758305308154926e+00 0 0 1
280 1 9.3051307630119495e-01 2.1483440176467008e+00 6.6319875425318031e+00 0 0 0
233 1 4.3922107194646500e+00 5.5409356885668437e+00 1.0174032489560080e+01 0 0 0
124 1 1.9089276445955996e+00 4.4354101295822730e+00 4.7038306608700786e+00 0 0 0
3420 1 3.5081247702221430e+00 1.9301032894683328e+00 2.1192683103127137e+00 1 1 0
1364 1 5.1523182777536789e+00 5.6753706794049910e+00 8.4591517622365622e+00 0 0 0
981 1 1.6937881875226051e+00 4.5981307384888455e+00 1.0122365275760639e+00 0 0 1
258 1 5.3316933535816897e+00 4.1983849997689332e-01 8.3576462229594597e+00 0 0 0
442 1 4.0463864299114292e+00 4.4591459471615416e+00 6.8014871701309616e+00 0 0 0
2199 1 2.0455359998168863e+00 7.6015563901629302e-01 8.8063735467669302e-01 1 0 0
2303 1 1.3233998305196397e+00 4.9225823392628678e+00 7.3194594671038615e+00 1 0 0
168 1 4.9529114018408721e-01 2.8220213730109278e+00 5.2961977700734657e+00 0 0 0
2523 1 1.8083684654572416e+00 2.5361604346105802e+00 7.9846104029425016e+00 1 0 0
1162 1 4.6292879942146037e+00 1.7985070481542773e+00 1.9682912360612034e-01 0 1 0
2490 1 5.9785465982079335e+00 3.9867139376486476e+00 2.6355239572194860e+00 0 0 0
2486 1 3.3966707761731088e+00 3.6154017852686642e+00 6.5555960393919737e+00 1 0 0
1136 1 4.4328381734559814e+00 1.2824523689832443e+00 1.9276805372777370e+00 0 0 0
2503 1 3.2578169270435642e+00 4.3659564349409159e+00 1.0866412704802190e+01 1 0 0
3475 1 2.1467097929470556e+00 4.8853369036572838e+00 6.7393901726740282e+00 1 0 0
227 1 4.0163098617383604e+00 4.8598228644859303e+00 2.9358885207824348e-01 0 0 0
3211 1 3.5568690275812833e+00 2.0617993834092667e+00 3.6999244320084057e-01 1 0 1
1038 1 5.1554723819167403e-01 2.0619651133984562e+00 5.8352471577565534e-01 0 0 1
3336 1 2.3316527813329233e+00 1.3389507362909030e+00 2.8399134179842980e+00 1 0 0
1385 1 1.0716913019086183e+00 4.6297194510582544e+00 5.4864059739491822e+00 0 1 0
282 1 4.0643462309997975e+00 1.3695867665992132e+00 7.9087611412391361e+00 1 1 0
3255 1 4.1412259975421639e+00 1.1258603816723474e+00 8.4495379983773300e-01 0 0 1
1443 1 1.0576107807278128e+00 3.2502133160843272e-03 3.4647662646569746e+00 0 1 0
1266 1 6.7524980365523499e-02 3.3090001675388403e+00 4.6193020601199715e+00 0 0 0
2571 1 4.2303275480692086e+00 1.6528991802006674e+00 2.8737343325185503e+00 0 1 0
160 1 5.4510405251351157e+00 3.3650961322415283e+00 1.9961128985609418e+00 0 0 0
1022 1 3.8666725823132255e+00 3.0351634611966971e+00 8.6052420959928333e-01 0 0 1
4300 1 1.3622698937910172e+00 2.8691757294033358e+00 3.6394004815967405e+00 1 0 1
2534 1 3.4265889375389333e+00 4.9234314555700029e+00 4.4300951368877488e+00 1 0 0
2633 1 4.0185250560470811e+00 3.9278510546202474e+00 9.3655618793276130e+00 0 0 0
3445 1 4.1909991309610826e+00 4.6947862389280663e+00 3.8167946076768176e+00 1 0 0
1259 1 4.2781324814099779e+00 3.8501433694195293e+00 2.4832760591332112e-01 0 0 0
3453 1 1.9290537583741001e+00 2.5790404316535955e+00 1.6187073335414910e+00 1 1 0
3468 1 2.7866222937530067e+00 1.4534714261446906e+00 5.6079809768659317e+00 1 1 0
2319 1 5.3869784414738833e+00 4.4386676039101065e+00 1.8126531637158561e+00 1 0 0
2609 1 5.4321278362810901e+00 3.4743283529558600e+00 8.1811826005323418e+00 0 0 0
3744 1 6.0916752869996094e+00 1.1256457737318777e+00 8.4298477782901351e+00 0 1 0
2301 1 2.6342191409359788e+00 3.5879375802480395e+00 1.0834637416109654e+01 0 0 0
2453 1 4.8181090245813483e+00 4.3802839925290922e+00 1.0239217200040540e+00 1 0 0
3591 1 5.4714890335531612e+00 4.0933042785229290e-01 5.9075787683318701e+00 0 1 0
103 1 2.8113726221370663e+00 4.0116901616001144e+00 8.3360026465220223e+00 0 0 0
2204 1 2.0434789580401449e+00 4.8720694670963125e+00 2.1288933886334580e+00 1 0 0
42 1 4.1170203458185481e+00 2.0600405329843126e+00 1.2476297899133919e+00 0 -1 0
3538 1 4.8353213273421147e+00 3.4931089575013328e+00 4.1482084689338334e+00 0 0 0
320 1 4.7845688294719739e+00 3.5554049708787856e+00 1.0887254099650315e+01 -1 0 0
200 1 3.1096676667399531e-01 5.3937360461361372e+00 7.3712623312603380e+00 0 0 0
1123 1 5.8689890929912938e+00 4.5746595871322759e-01 8.6783949517191072e-01 0 1 0
1287 1 2.2291108492662319e+00 3.3167335655576609e+00 7.6675876933437017e+00 0 1 0
3251 1 2.2908695058725534e+00 4.1796013457741328e+00 2.7669730278285440e+00 1 0 1
1633 1 5.4977536395091482e+00 5.1488037176146162e-01 9.3606465587708190e+00 0 1 0
113 1 5.0053497470967550e+00 4.5101697978897342e+00 4.4272148754405336e+00 0 0 0
3335 1 3.0589091951168772e+00 2.3160620442244548e+00 1.3183353357324195e+00 1 1 0
3274 1 1.5095217614441268e+00 5.7206792608643511e+00 1.0886761286931539e+00 1 0 0
79 1 4.9631342158141543e+00 3.9173246148655627e-01 6.1277533135217610e-01 0 0 0
2462 1 6.0151229678380593e+00 2.9749720295608695e+00 9.5955043495741492e+00 0 0 0
183 1 4.2717654049058122e+00 2.6893372398363896e-01 1.4673936303329631e+00 0 0 0
1323 1 5.3175374813008185e+00 5.5297429659943749e+00 6.1689566160803846e+00 0 1 0
2232 1 3.0515624723586514e+00 9.0980249080774578e-01 3.7511530242320670e+00 1 0 0
2253 1 5.8095704331480675e+00 4.6209589088108753e+00 7.4084064270992223e-01 1 0 0
122 1 4.6084158189026025e+00 2.6704863043926346e+00 2.5349060826268248e+00 0 0 0
2655 1 3.9157125021289261e+00 2.7873015681900801e+00 8.5088016347678206e+00 0 0 0
1456 1 1.0910208166866397e+00 1.6548531527334782e+00 7.4429418744482652e+00 0 1 0
131 1 5.6655449046012496e+00 2.8181483943278747e+00 4.0302474200413450e+00 0 0 0
2621 1 3.0965854355929028e+00 9.5895185719477349e-01 7.7163536599868596e+00 0 0 0
2619 1 1.1340681843887750e+00 6.1376293496019363e-01 7.7561983681104447e+00 1 0 0
2320 1 4.6468601772114111e+00 4.7673799974001980e+00 5.9559447272559547e+00 1 0 0
1006 1 1.3393196233933029e+00 4.6026175865784564e+00 3.5812176184107680e+00 0 0 1
2473 1 4.8556369462498692e+00 3.7573606968725852e+00 6.3353279763652903e+00 1 0 0
1210 1 3.7667371083280745e+00 4.6661406979118079e+00 1.2604842826967524e+00 0 0 0
162 1 4.7230619764672230e+00 1.1595900479180346e-01 4.9598880966495367e+00 0 0 0
2003 1 2.6066316903394107e+00 5.0558291147908907e-01 1.8828888391502818e+00 0 0 1
1198 1 2.3965696588263037e+00 2.4767212771009288e+00 6.6169818217227538e-01 0 0 0
123 1 2.4393308492620274e+00 5.1577411311615986e+00 5.7706120762156985e+00 0 0 0
2183 1 4.6580424531845059e+00 1.0923964534362431e+00 8.9302498020593788e+00 0 1 0
1316 1 3.3822718393973692e+00 1.7598402499739947e+00 8.5237116475452499e+00 0 1 0
2142 1 5.7447077521036176e+00 2.0764015666637743e+00 3.2596950672139817e+00 0 1 1
1387 1 2.5525866403466629e-01 3.4667634283777740e+00 7.9515318703122837e+00 0 1 0
159 1 3.5982857699231339e+00 3.7516413114860274e+00 1.5061203825290719e+00 0 0 0
2208 1 1.6536791540924967e+00 1.9567260238526868e-01 4.7110503980931995e+00 1 0 0
2489 1 4.5592284787881834e+00 2.4139130158196319e-02 8.9231164878647231e+00 0 0 0
2207 1 8.1492586955095869e-01 2.8484988974280210e+00 1.5291560053578446e+00 1 0 0
2405 1 3.3787104532581991e-01 4.4916902030572077e+00 7.7381982678540409e+00 1 0 0
105 1 5.4098448381444646e+00 5.2184899690880948e-01 4.1553436657565745e+00 0 0 0
2488 1 3.2766970001372129e+00 1.6681834487353353e+00 7.0283792131676082e+00 0 0 0
147 1 2.6366783427417064e+00 2.4211888431712110e+00 2.4452604360019530e+00 0 0 0
3534 1 2.1200811134819033e+00 5.6573278643462976e-01 7.1965696321112222e+00 1 1 0
3376 1 4.6348308817688890e+00 3.1961652556810805e+00 9.0055899254880565e+00 0 0 0
2362 1 1.1081122887641277e+00 4.7599709712972054e+00 8.7796831079819970e+00 1 0 0
2837 1 5.2258666399575766e+00 1.2388962465316782e-01 1.0432964962628118e+01 1 0 0
352 1 2.8893299213483781e+00 2.8187465565246788e+00 8.3599734005933275e+00 1 0 0
3503 1 4.8625154148843484e+00 3.8403133155221285e+00 5.2638668595308182e+00 0 0 0
2242 1 3.6286777390579892e+00 2.5905842122443055e+00 3.2840755117527327e+00 1 0 0
1428 1 5.2541981968590914e+00 1.1230941273517705e+00 1.0222982258530992e+01 0 1 0
1288 1 4.8694618602063642e+00 2.3436384674281445e+00 3.6697208586353889e+00 0 1 0
3067 1 1.0643256619204415e+00 3.8292944585917992e+00 7.4308918707154819e+00 1 0 1
268 1 3.6176351098256889e+00 2.5801783179865541e+00 6.5872964087940931e+00 0 0 0
1466 1 8.3392792395855775e-01 1.3025399019875925e+00 4.2183335810386380e+00 0 0 0
1337 1 2.1586181505095703e+00 3.3815733907710324e+00 9.3153073146269474e+00 0 1 0
328 1 1.8481150337329129e+00 3.5954823364556905e+00 6.5352014207111386e+00 0 0 0
3440 1 3.8009089134025174e+00 1.6116303042584659e+00 6.1603265242556846e+00 1 0 0
191 1 2.8309987758969410e+00 5.4006789317241726e+00 2.9225536301710227e+00 0 0 0
72 1 5.0688954367896093e+00 4.7598004551765198e+00 6.9337321083907799e+00 0 0 0
1081 1 7.2756587777045545e-01 1.9714983167419908e-01 4.3943086084396468e+00 0 0 1
174 1 1.7349694160969367e-01 5.1891876415154634e+00 8.5002359946265642e+00 0 0 0
1046 1 2.6618644143963222e+00 1.5157656433825668e+00 4.3197278213514012e-01 0 0 1
3655 1 1.2259465809674150e+00 1.4001310980146042e+00 8.4866462766768045e+00 1 1 0
3430 1 1.8932780510972960e-01 4.4682455235751428e+00 3.0435507405810136e+00 1 1 0
4335 1 1.1388124586666215e+00 5.1016984801332805e+00 4.6153995617124615e+00 1 0 1
325 1 2.7985770581612748e+00 1.0328719757102540e+00 9.1917103898049639e+00 0 1 0
3504 1 1.8398018244013667e+00 2.6208903331424915e+00 6.8832262060084428e+00 1 1 0
30 1 5.4176134322099596e+00 5.0137850742221817e+00 5.2290866696109264e+00 0 0 0
1494 1 3.3024891586384504e+00 3.3837867369387409e+00 9.1322735763735476e+00 0 1 0
217 1 1.0161065642706417e+00 3.6692483442818378e+00 5.4920888034555073e+00 0 0 0
3322 1 3.4179654016270686e+00 3.3139979529118051e+00 5.4892909989912075e+00 1 0 0
2297 1 2.2660426704303664e+00 1.8753108761886859e+00 8.5438215709742185e+00 1 0 0
307 1 2.0182077838064516e+00 4.2382390495490458e+00 5.7470617757280777e+00 0 0 0
2519 1 8.2924448107526105e-01 1.2716874089818309e-01 9.7509205469496703e+00 1 0 0
2364 1 5.0102010202086100e-01 4.0777124710827817e+00 8.8480246402695322e+00 1 0 0
1367 1 5.3265160015925215e+00 3.2699606323169856e+00 3.2140853383942170e+00 0 0 0
1454 1 2.8473800557180708e+00 3.1035345301951862e+00 1.0046369140542161e+01 0 1 0
4196 1 2.8762816832335734e+00 3.2699986117273103e+00 2.9540088145882759e+00 1 0 1
1248 1 5.4379213063265448e+00 2.7278970361293298e+00 5.1014983704789216e+00 0 1 0
3464 1 1.8486657102099413e+00 1.3858148673419004e+00 4.6817631484593996e+00 1 1 0
3442 1 1.2737226014658340e+00 5.7435851564008065e+00 3.8051253829652549e+00 1 0 0
2188 1 1.3349598609526312e+00 2.6374738548355090e+00 5.8627844370558302e+00 1 -1 0
2282 1 2.7067118249379827e+00 2.9869588302350087e+00 6.0794645991023222e+00 1 0 0
205 1 6.0425359705857744e+00 4.7157776728594074e+00 4.3204192675366633e+00 0 0 0
192 1 7.9887346561361361e-01 1.7394074316780432e+00 1.5853650844189144e+00 0 0 0
1447 1 1.9876759023043282e+00 1.7374638915641163e+00 1.0801083545174823e+01 0 1 0
1415 1 5.9059432886984267e+00 2.3609462264322785e+00 7.9003638689965436e+00 0 1 0
1448 1 2.1752345928328038e+00 1.5645998733588014e+00 7.5468328359467423e+00 0 1 0
108 1 6.9306042360513886e-01 3.8385474610371779e+00 3.6832673466224608e+00 1 0 0
3530 1 5.5488307582200784e+00 2.4167428041271819e+00 8.7984275699357113e+00 1 1 0
1194 1 9.6374072579887837e-03 1.8120361712097957e+00 7.0603578556705253e+00 0 1 0
260 1 2.0750519465234420e+00 4.5771869862938308e+00 7.8278418612079186e+00 0 0 0
460 1 2.1432448465251981e+00 4.4818417016100627e+00 9.1505721644615647e+00 0 0 0
1245 1 4.6073634443227647e+00 5.7115864590017260e+00 3.4794772636699451e+00 0 0 0
3100 1 6.0566920963264959e-01 3.3673665104996853e+00 2.7564093854869713e+00 1 0 1
2341 1 3.4967066770894983e+00 5.4981898230424715e+00 8.1688368569235177e+00 1 0 0
137 1 9.3209599981889002e-01 7.5710736492773478e-01 5.2412155510302538e+00 0 0 0
3451 1 4.4743818102976514e+00 3.8979645341159181e+00 2.0883172190175592e+00 1 0 0
2622 1 1.2695377922785984e+00 7.5433457236084633e-01 1.0497689927413560e+01 0 0 0
1099 1 4.9451773840236477e+00 5.2975393625920919e+00 6.2800763379106750e-01 0 0 0
2538 1 1.7002818866110083e+00 5.6049591967762167e+00 8.8557164527016532e+00 0 0 0
430 1 2.9205324055344251e-01 3.9794037969428810e+00 1.0086937458814814e+01 0 0 0
2275 1 3.4584653857062162e+00 5.7841243532344988e+00 3.5837262064879014e+00 1 0 0
279 1 3.3544026189534328e+00 4.7612465610049165e-01 1.0037781912601430e+01 0 0 0
251 1 3.7883360953404774e+00 1.3463071013572998e+00 5.1740742322700068e+00 0 1 0
1920 1 8.0651057075095256e-01 2.1656063952176385e+00 2.8606859968880793e+00 0 1 1
2383 1 5.1404970945413595e+00 3.9869860015605845e+00 9.6887372279808410e+00 0 0 0
3670 1 6.0719881158188098e+00 2.1039240739879483e+00 1.0254790157521272e+01 0 0 0
1101 1 5.1708240463724922e+00 2.5460977902609407e+00 6.8533516861834520e-01 0 0 0
2347 1 1.8180458630794087e+00 6.6135990162174318e-01 5.7392351189299875e+00 1 0 0
114 1 4.4149255774378533e+00 6.9860999781167588e-01 6.0552132789601449e+00 0 0 0
1381 1 4.5204890214056235e+00 2.0498571271806671e+00 8.7982343596524757e+00 0 1 0
1238 1 1.3102521247282570e+00 3.4612929169985991e+00 4.5260696950795438e+00 0 0 0
2296 1 5.3694754947424892e+00 3.6504814381999200e+00 7.5256286440078834e-01 1 0 0
2233 1 2.0855114409398237e+00 3.3551024117074291e+00 5.4251539256527588e+00 1 0 0
2182 1 1.0611462813847881e+00 4.3738019688631855e+00 2.6090536462659553e+00 1 0 0
3373 1 1.4666559917599956e-01 7.1999340663147438e-01 1.6494894947632517e+00 1 1 0
1039 1 1.0904034349584006e+00 7.5679729147790842e-01 1.1407647943692945e+00 0 0 1
2225 1 2.5393730150127052e+00 1.5180160180136901e+00 1.7808706224355058e+00 1 0 0
2498 1 5.3068344345406393e+00 5.8016934825762849e+00 9.5906551693084410e+00 0 0 0
2387 1 3.6141124230002131e+00 4.3436498080223291e+00 7.7047738859264161e+00 1 0 0
194 1 5.5015994428670556e-01 5.6638608727656417e+00 5.3517700300052837e+00 0 0 0
461 1 2.7326585407873463e+00 5.5855752229596316e+00 1.0733281724357219e+01 0 0 0
1291 1 4.8660975212494950e+00 1.1403756755606140e+00 3.4255073638427973e+00 0 1 0
175 1 4.7128676386235604e+00 2.0803514901096136e+00 5.6352915799155703e+00 0 0 0
2424 1 5.5483995785526528e+00 5.3579318730367547e+00 2.5999308448615106e+00 0 0 0
337 1 5.8594823151119577e+00 3.8115248430779518e+00 1.0419944532906321e+01 0 0 0
1460 1 9.6791312435167098e-01 3.1087051482563499e+00 9.6647416295292246e+00 0 1 0
3565 1 5.5072525437154738e+00 5.2665950632080332e+00 3.7207243757403989e+00 1 0 0
1484 1 1.1733827870507922e+00 4.5042734994648743e+00 1.0630150979388874e+01 0 1 0
2554 1 4.8524299989472288e+00 2.0341706274585918e+00 9.7825487017437229e+00 0 0 0
1567 1 1.7099806988957695e+00 1.3022449177281255e+00 6.6231069796458630e+00 0 1 0
1519 1 5.7143470789112127e-01 1.1410804401465480e+00 9.5228477439698072e+00 0 1 0
167 1 3.6772775356186851e+00 1.8237365876536887e-01 4.9270246332283527e+00 0 0 0
3604 1 5.9453325991019197e+00 7.4439048210974879e-01 7.3797317211868645e+00 0 0 0
1493 1 4.2933281755880986e-01 2.8042600050616411e+00 1.0506387922239739e+01 0 1 0
1235 1 4.3167726350621960e+00 4.3268172644654523e-01 9.8387311556202839e+00 0 1 0
360 1 3.0201653512359945e+00 1.7764888640180065e+00 4.3883701638963242e+00 0 0 0
314 1 5.6735907183271612e+00 4.8610335902840891e+00 9.1385342889638448e+00 0 0 0
3704 1 4.4971530211242481e+00 4.9717530825883411e+00 9.3309036514502974e+00 1 0 0
440 1 2.1271390037765534e+00 4.8471517211928783e-01 1.0022468203017635e+01 0 0 0
2536 1 4.4578545071079070e+00 5.2381029309342582e+00 4.6642344713231401e+00 0 0 0
2600 1 2.9825496697043454e+00 1.4902318739281282e+00 1.0098441253738443e+01 0 0 0
3582 1 5.1618575981384893e+00 4.6688596578711739e-01 6.8117895307897296e+00 0 1 0
3388 1 5.8883157752799464e+00 9.2718580678942286e-01 3.1385992300625492e+00 1 1 0
2414 1 3.3487298610660918e+00 5.1192517825733796e+00 1.0047412625348201e+01 0 0 0
1282 1 5.4665375756145114e+00 2.6637888309576079e+00 6.1257162061513766e+00 0 1 0
247 1 2.6529183355769410e+00 4.0260835878829706e+00 7.0707839610078853e+00 0 0 0
1420 1 3.4039641334654438e+00 4.3461931558699868e-01 6.0201707333220646e+00 0 1 0
1224 1 3.2082346305914085e+00 3.9744070158654488e+00 6.0879602591734794e-01 0 1 0
255 1 5.4870575885812922e+00 1.4991995443900714e+00 9.1991512534408955e+00 0 1 0
3310 1 2.3983621444450907e+00 3.3316990072674529e-01 2.9217756341882102e+00 1 0 0
3456 1 6.7286374873107568e-01 1.3051427998179959e+00 6.3888500913085693e+00 1 1 0
1014 1 2.0247834363085295e+00 5.3472932796638197e+00 2.1261141053941379e-01 0 0 1
2989 1 1.6874210446982529e+00 7.5628836509478570e-01 3.8592889254154246e+00 1 0 1
355 1 9.6341872160923769e-01 3.0202196052271368e+00 8.5888218264919693e+00 0 0 0
2295 1 5.3714165523148321e+00 5.6688104201854799e+00 7.4744127140579035e+00 0 0 0
249 1 4.0039320099754541e+00 2.6441697578942431e+00 9.6033802825689989e+00 0 0 0
199 1 1.5632695581758327e-01 3.1314865444597371e+00 7.3478670972328730e-01 0 0 0
1483 1 3.4426912886645198e+00 2.7634019825763763e+00 4.5210192829487195e+00 0 1 0
4348 1 1.7087240602937592e+00 1.6670984888115643e+00 1.0682340031952995e+00 1 1 1
1654 1 4.5097191172625326e+00 2.6027641033185045e+00 1.0687338134626270e+01 0 0 0
198 1 9.8690330024395634e-01 4.2889263200891161e+00 6.4227084389913713e+00 1 0 0
2441 1 3.5285411672171713e-01 2.3006261922497271e+00 9.4436545416986313e+00 1 0 0
473 1 5.6628752603797861e-01 5.0409630733255506e+00 9.6137307946735344e+00 0 0 0
2546 1 2.4537598999105395e-01 2.2193949229508627e+00 4.3214477110231018e+00 1 0 0
1054 1 5.1683029364433981e+00 1.4978542100573253e+00 1.0545380595474210e+00 0 0 1
438 1 4.4741537092597250e+00 2.6602282476012200e+00 4.8407063544019833e+00 0 0 0
104 1 2.6844095495874285e+00 8.1188124573406606e-01 4.7581722364295631e+00 0 0 0
1297 1 3.9998428501313126e+00 1.4433285207935612e-01 6.8454135449433826e+00 0 1 0
3577 1 6.0100097608464003e+00 5.0330606458593961e+00 6.8741279898575076e+00 0 0 0
2293 1 1.9210586606790772e+00 1.8794953674689974e+00 3.5969753198068117e+00 1 0 0
3380 1 2.6128334196524623e+00 3.2764472998022725e+00 1.4900625442073534e+00 1 0 0
2217 1 1.2921657064602383e+00 1.2179364842383100e+00 3.0971290303228045e+00 1 0 0
1534 1 4.2810204780523646e+00 1.5358931907629139e+00 1.0519298603656521e+01 0 1 0
93 1 6.0088968683728359e+00 3.9535549738261427e-01 4.9650750868814049e+00 0 0 0
146 1 3.6002333247790363e+00 5.2839281112971266e+00 5.3954226135897523e+00 0 0 0
2228 1 1.7805526943123873e+00 1.7328118434254862e+00 5.6411095833304090e+00 1 0 0
3626 1 5.3109797884532846e+00 1.4205725830801395e+00 6.1160422515234050e+00 0 1 0
56 1 7.6549573191406350e-01 5.2534964740824552e+00 6.3522187954802600e+00 0 -1 0
3213 1 3.8935698394332041e-01 3.9395208701540261e+00 1.9167057077596272e+00 1 0 1
286 1 1.2097638024590789e+00 4.0916543669834802e+00 9.6178902140017613e+00 0 0 0
972 1 3.0202707465471867e+00 5.8086698860092467e-01 7.3040572464569353e-01 0 0 1
1341 1 5.2465346099328096e+00 1.7845867311268501e-01 2.9186113520343286e+00 0 1 0
39 1 2.9975751705778482e+00 4.9501409259797500e+00 2.7246338899774919e-01 0 0 0
339 1 4.2296614864785456e+00 3.2203191913206353e+00 7.0393326860442755e+00 0 0 0
1423 1 3.9240809054819201e+00 4.1006225476141438e+00 5.7727071832963928e+00 0 1 0
1190 1 5.4501232112333291e+00 4.1782015953945635e+00 3.5665928158331379e+00 0 0 0
1143 1 5.5260713124060423e+00 4.7484418597817717e+00 8.1269525258868960e+00 0 1 0
1247 1 4.6965494882248304e+00 2.3045070163477468e+00 6.8953449721092515e+00 0 1 0
3385 1 3.2765750019536144e+00 5.0391631462237996e+00 6.3792531496676945e+00 1 1 0
2542 1 3.5424485852780419e+00 2.2892510204756715e+00 1.0478571116098326e+01 0 0 0
2437 1 3.4385274159569583e+00 3.2972507471304824e+00 7.6013887938723688e+00 1 0 0
2216 1 2.1061306694930506e+00 3.6157993105686588e+00 5.8110722643056234e-01 1 0 0
1372 1 2.7884987255629019e+00 2.4329640171155282e+00 9.3810539960738080e+00 0 1 0
1166 1 1.6005032630670519e+00 5.6086354156045841e+00 1.0833187297869980e+01 0 0 0
2307 1 4.2029387107679863e+00 1.7845855033932618e+00 4.3459527943163163e+00 1 0 0
2101 1 4.0617670222388886e+00 6.3225129953327042e-01 4.0945538996470034e+00 0 1 1
1200 1 5.2779073583582097e+00 1.4573857923084343e+00 2.3418298275704643e+00 0 0 0
2567 1 1.8668391661552637e+00 2.6158258858611925e+00 1.0157989542649071e+01 0 1 0
2397 1 5.7628662428770894e-01 2.1226843124786723e+00 8.2466024793456363e+00 1 0 0
1425 1 1.2313742303022981e+00 4.6747082195461975e-01 6.7720168960752005e+00 0 1 0
180 1 5.4126033378907117e+00 1.6836759573409394e+00 4.1876509076952795e+00 0 0 0
1349 1 6.4495624229614945e-01 1.7866202652472145e+00 5.4644537298876079e+00 1 1 0
2407 1 2.2087552556803067e+00 5.1275534845500070e+00 9.9234864037784849e+00 1 0 0
1244 1 1.5786589347700795e+00 8.2287544789688988e-03 2.6215041361338914e-01 0 0 0
3363 1 1.7990683032563508e+00 5.2646733911101116e+00 3.0222030447358037e+00 1 0 0
3557 1 3.3586616589319163e+00 1.0706815694428367e+00 2.6677723396978941e+00 0 1 0
2329 1 4.7618843250999614e+00 1.2061559781117330e+00 4.8595215608339748e+00 0 1 0
1528 1 4.3555729845109283e+00 4.4607083457543721e+00 1.0310794038218587e+01 -1 1 0
2198 1 2.9834795959332392e+00 4.4693697687680922e+00 5.2579261755670093e+00 1 0 0
2314 1 3.0708955610837596e+00 2.9903436215519847e+00 1.9895832971344837e-01 1 0 0
1363 1 2.6521907085841794e+00 5.5394789345699387e+00 4.7871935200345828e+00 0 0 0
2279 1 5.7071801251348786e-01 5.4242170284435520e-01 8.6683885673190044e+00 1 0 0
2236 1 4.5764046830415983e-01 5.5026701701119851e+00 3.1494775452918651e+00 1 0 0
2353 1 4.8288252283633808e+00 2.7338996561686009e+00 8.0428184533788780e+00 0 0 0
1062 1 1.2052849965997632e+00 2.2827780790554701e+00 4.5730259075978266e+00 0 0 1
2452 1 2.7411999764266484e+00 5.3684599026213640e+00 9.0284983716262239e+00 1 0 0
580 1 1.6764621748530677e+00 3.7507087822237324e+00 8.3697949201651216e+00 0 0 0
3399 1 2.5198270242559162e+00 5.3954728256040383e+00 1.1705062973291367e+00 1 0 0
1502 1 4.4226979940408615e+00 4.9259608398045094e+00 8.0141061899970296e+00 0 1 0
932 1 7.3028017113485999e-01 4.9513322406727118e+00 5.3350574054975142e-01 0 0 1
1080 1 4.3244912479198119e+00 5.7214816440962146e-01 2.5375125143788808e+00 0 0 1
2517 1 3.4861265596261712e+00 5.8623081120504150e-01 8.6383274021335890e+00 1 0 0
2246 1 2.6023791612815894e-01 1.3523420807700446e+00 2.4277461247236327e+00 1 0 0
346 1 4.3378011296923569e-01 5.2800798899026891e+00 1.0801979088388910e+01 0 0 0
1430 1 4.3255940111806046e+00 2.9545056484547754e+00 5.9059820989995657e+00 0 1 0
2521 1 1.4496673447254720e+00 2.3038468856808763e+00 9.2030126360784941e+00 0 0 0
1418 1 5.2443127170847852e+00 1.4362246278651229e+00 7.8814033970575155e+00 0 1 0
1388 1 4.9319082609579743e+00 4.2767540921105462e+00 8.7175093852623196e+00 -1 1 0
2957 1 1.7109949487526723e+00 3.2291645332749561e+00 2.8041713837217768e+00 1 0 1
1213 1 2.5138396383111061e+00 1.9900058599447716e+00 6.4684666307956009e+00 0 1 0
1319 1 3.1254552504197436e-01 1.4480074714710164e-01 7.0467310419163836e+00 0 1 0
60 1 2.9003094759824579e+00 3.6376531556323473e+00 4.5717782433365626e+00 0 0 0
1306 1 1.6933057793631665e+00 1.9876780134518810e+00 2.3525285386532064e+00 0 1 0
421 1 3.8241853822645289e+00 2.3612507315311655e+00 7.5831817834268582e+00 0 0 0
3593 1 4.6682708837140670e+00 3.9407396132336019e+00 7.5813820813379760e+00 0 1 0
3246 1 1.0705882980642922e+00 3.7096407793904458e+00 7.1619581865751869e-01 1 0 1
3435 1 4.4614642668631310e+00 1.2766867998181688e+00 6.9766098970504435e+00 1 1 0
3264 1 7.9685422660228133e-01 4.9638332140514863e-01 2.5349815290601643e+00 1 0 1
2348 1 5.4092096083641579e-02 2.4855240822783440e+00 2.2032801629472254e+00 1 0 0
1475 1 1.4262832113906756e+00 5.7418647322821537e+00 9.8800164726143898e+00 0 0 0
216 1 5.6682647547446869e+00 4.0931102473209151e+00 7.3021883832677723e+00 0 0 0
3347 1 1.6484613825854126e+00 5.7697122776881864e+00 5.7251382221144835e+00 1 0 0
2195 1 1.0165899556199394e+00 1.0194889312809325e+00 5.7778279959334704e-02 1 0 0
1356 1 5.9449442585860819e+00 1.4441353797131007e+00 5.3821521214890629e+00 0 1 0
101 1 7.8070334281726841e-02 1.6281596662456683e+00 3.4953801185681743e+00 0 0 0
1253 1 2.2935321171407140e-02 2.7114043779329289e+00 3.2665044263781597e+00 0 1 0
2174 1 4.9242997012101231e-01 2.7572158380506608e-02 8.3803596120204638e-01 0 1 1
1410 1 4.4374726998966754e+00 5.8024045540599829e+00 5.6545337843125907e+00 0 1 0
3747 1 5.5967895171875544e+00 2.8857671116290988e+00 1.0932702603177384e+01 0 0 0
572 1 3.1006137636113831e+00 5.2575821245351295e-01 1.7136211629813602e+01 0 0 0
2762 1 1.8717414877577556e+00 3.3203172327218482e+00 1.4454837757046391e+01 1 0 0
3972 1 5.8811293053300036e+00 5.4584506028522908e+00 1.9895321924769984e+01 0 0 0
333 1 5.0667928161373226e+00 6.9736992987782820e-01 1.2091588745605549e+01 -1 0 0
637 1 6.1619637486253707e+00 3.9965054859084894e+00 1.8863431821099759e+01 0 -1 0
1360 1 2.1829217718948688e+00 4.7333376617264866e+00 1.1058931880199324e+01 0 0 0
823 1 1.1007884334800229e+00 1.9971198403012045e+00 1.7707843843072673e+01 0 0 0