 LAMMPS lj fcc 111 crystal

        4752 atoms
           1 atom types

   0.00000000       12.056731534523953      xlo xhi
   0.00000000       11.390657231461834      ylo yhi
   0.00000000       32.217643882152991      zlo zhi

 Atoms

           1           1  0.82204987735390600       0.47461071797757637       0.44746727614101384     
           2           1  0.27401662578463531        1.4238321539327292       0.44746727614101384     
           3           1   1.9181163804924473       0.47461071797757637       0.44746727614101384     
           4           1   1.3700831289231765        1.4238321539327292       0.44746727614101384     
           5           1   3.0141828836309883       0.47461071797757637       0.44746727614101384     
           6           1   2.4661496320617178        1.4238321539327292       0.44746727614101384     
           7           1   4.1102493867695298       0.47461071797757637       0.44746727614101384     
           8           1   3.5622161352002593        1.4238321539327292       0.44746727614101384     
           9           1   5.2063158899080708       0.47461071797757637       0.44746727614101384     
          10           1   4.6582826383388003        1.4238321539327292       0.44746727614101384     
          11           1   6.3023823930466119       0.47461071797757637       0.44746727614101384     
          12           1   5.7543491414773413        1.4238321539327292       0.44746727614101384     
          13           1   7.3984488961851538       0.47461071797757637       0.44746727614101384     
          14           1   6.8504156446158833        1.4238321539327292       0.44746727614101384     
          15           1   8.4945153993236939       0.47461071797757637       0.44746727614101384     
          16           1   7.9464821477544243        1.4238321539327292       0.44746727614101384     
          17           1   9.5905819024622367       0.47461071797757637       0.44746727614101384     
          18           1   9.0425486508929662        1.4238321539327292       0.44746727614101384     
          19           1   10.686648405600778       0.47461071797757637       0.44746727614101384     
          20           1   10.138615154031507        1.4238321539327292       0.44746727614101384     
          21           1   11.782714908739319       0.47461071797757637       0.44746727614101384     
          22           1   11.234681657170048        1.4238321539327292       0.44746727614101384     
          23           1  0.82204987735390600        2.3730535898878822       0.44746727614101384     
          24           1  0.27401662578463531        3.3222750258430347       0.44746727614101384     
          25           1   1.9181163804924473        2.3730535898878822       0.44746727614101384     
          26           1   1.3700831289231765        3.3222750258430347       0.44746727614101384     
          27           1   3.0141828836309883        2.3730535898878822       0.44746727614101384     
          28           1   2.4661496320617178        3.3222750258430347       0.44746727614101384     
          29           1   4.1102493867695298        2.3730535898878822       0.44746727614101384     
          30           1   3.5622161352002593        3.3222750258430347       0.44746727614101384     
          31           1   5.2063158899080708        2.3730535898878822       0.44746727614101384     
          32           1   4.6582826383388003        3.3222750258430347       0.44746727614101384     
          33           1   6.3023823930466119        2.3730535898878822       0.44746727614101384     
          34           1   5.7543491414773413        3.3222750258430347       0.44746727614101384     
          35           1   7.3984488961851538        2.3730535898878822       0.44746727614101384     
          36           1   6.8504156446158833        3.3222750258430347       0.44746727614101384     
          37           1   8.4945153993236939        2.3730535898878822       0.44746727614101384     
          38           1   7.9464821477544243        3.3222750258430347       0.44746727614101384     
          39           1   9.5905819024622367        2.3730535898878822       0.44746727614101384     
          40           1   9.0425486508929662        3.3222750258430347       0.44746727614101384     
          41           1   10.686648405600778        2.3730535898878822       0.44746727614101384     
          42           1   10.138615154031507        3.3222750258430347       0.44746727614101384     
          43           1   11.782714908739319        2.3730535898878822       0.44746727614101384     
          44           1   11.234681657170048        3.3222750258430347       0.44746727614101384     
          45           1  0.82204987735390600        4.2714964617981872       0.44746727614101384     
          46           1  0.27401662578463531        5.2207178977533406       0.44746727614101384     
          47           1   1.9181163804924473        4.2714964617981872       0.44746727614101384     
          48           1   1.3700831289231765        5.2207178977533406       0.44746727614101384     
          49           1   3.0141828836309883        4.2714964617981872       0.44746727614101384     
          50           1   2.4661496320617178        5.2207178977533406       0.44746727614101384     
          51           1   4.1102493867695298        4.2714964617981872       0.44746727614101384     
          52           1   3.5622161352002593        5.2207178977533406       0.44746727614101384     
          53           1   5.2063158899080708        4.2714964617981872       0.44746727614101384     
          54           1   4.6582826383388003        5.2207178977533406       0.44746727614101384     
          55           1   6.3023823930466119        4.2714964617981872       0.44746727614101384     
          56           1   5.7543491414773413        5.2207178977533406       0.44746727614101384     
          57           1   7.3984488961851538        4.2714964617981872       0.44746727614101384     
          58           1   6.8504156446158833        5.2207178977533406       0.44746727614101384     
          59           1   8.4945153993236939        4.2714964617981872       0.44746727614101384     
          60           1   7.9464821477544243        5.2207178977533406       0.44746727614101384     
          61           1   9.5905819024622367        4.2714964617981872       0.44746727614101384     
          62           1   9.0425486508929662        5.2207178977533406       0.44746727614101384     
          63           1   10.686648405600778        4.2714964617981872       0.44746727614101384     
          64           1   10.138615154031507        5.2207178977533406       0.44746727614101384     
          65           1   11.782714908739319        4.2714964617981872       0.44746727614101384     
          66           1   11.234681657170048        5.2207178977533406       0.44746727614101384     
          67           1  0.82204987735390600        6.1699393337084931       0.44746727614101384     
          68           1  0.27401662578463531        7.1191607696636456       0.44746727614101384     
          69           1   1.9181163804924473        6.1699393337084931       0.44746727614101384     
          70           1   1.3700831289231765        7.1191607696636456       0.44746727614101384     
          71           1   3.0141828836309883        6.1699393337084931       0.44746727614101384     
          72           1   2.4661496320617178        7.1191607696636456       0.44746727614101384     
          73           1   4.1102493867695298        6.1699393337084931       0.44746727614101384     
          74           1   3.5622161352002593        7.1191607696636456       0.44746727614101384     
          75           1   5.2063158899080708        6.1699393337084931       0.44746727614101384     
          76           1   4.6582826383388003        7.1191607696636456       0.44746727614101384     
          77           1   6.3023823930466119        6.1699393337084931       0.44746727614101384     
          78           1   5.7543491414773413        7.1191607696636456       0.44746727614101384     
          79           1   7.3984488961851538        6.1699393337084931       0.44746727614101384     
          80           1   6.8504156446158833        7.1191607696636456       0.44746727614101384     
          81           1   8.4945153993236939        6.1699393337084931       0.44746727614101384     
          82           1   7.9464821477544243        7.1191607696636456       0.44746727614101384     
          83           1   9.5905819024622367        6.1699393337084931       0.44746727614101384     
          84           1   9.0425486508929662        7.1191607696636456       0.44746727614101384     
          85           1   10.686648405600778        6.1699393337084931       0.44746727614101384     
          86           1   10.138615154031507        7.1191607696636456       0.44746727614101384     
          87           1   11.782714908739319        6.1699393337084931       0.44746727614101384     
          88           1   11.234681657170048        7.1191607696636456       0.44746727614101384     
          89           1  0.82204987735390600        8.0683822056187982       0.44746727614101384     
          90           1  0.27401662578463531        9.0176036415739507       0.44746727614101384     
          91           1   1.9181163804924473        8.0683822056187982       0.44746727614101384     
          92           1   1.3700831289231765        9.0176036415739507       0.44746727614101384     
          93           1   3.0141828836309883        8.0683822056187982       0.44746727614101384     
          94           1   2.4661496320617178        9.0176036415739507       0.44746727614101384     
          95           1   4.1102493867695298        8.0683822056187982       0.44746727614101384     
          96           1   3.5622161352002593        9.0176036415739507       0.44746727614101384     
          97           1   5.2063158899080708        8.0683822056187982       0.44746727614101384     
          98           1   4.6582826383388003        9.0176036415739507       0.44746727614101384     
          99           1   6.3023823930466119        8.0683822056187982       0.44746727614101384     
         100           1   5.7543491414773413        9.0176036415739507       0.44746727614101384     
         101           1   7.3984488961851538        8.0683822056187982       0.44746727614101384     
         102           1   6.8504156446158833        9.0176036415739507       0.44746727614101384     
         103           1   8.4945153993236939        8.0683822056187982       0.44746727614101384     
         104           1   7.9464821477544243        9.0176036415739507       0.44746727614101384     
         105           1   9.5905819024622367        8.0683822056187982       0.44746727614101384     
         106           1   9.0425486508929662        9.0176036415739507       0.44746727614101384     
         107           1   10.686648405600778        8.0683822056187982       0.44746727614101384     
         108           1   10.138615154031507        9.0176036415739507       0.44746727614101384     
         109           1   11.782714908739319        8.0683822056187982       0.44746727614101384     
         110           1   11.234681657170048        9.0176036415739507       0.44746727614101384     
         111           1  0.82204987735390600        9.9668250775291050       0.44746727614101384     
         112           1  0.27401662578463531        10.916046513484257       0.44746727614101384     
         113           1   1.9181163804924473        9.9668250775291050       0.44746727614101384     
         114           1   1.3700831289231765        10.916046513484257       0.44746727614101384     
         115           1   3.0141828836309883        9.9668250775291050       0.44746727614101384     
         116           1   2.4661496320617178        10.916046513484257       0.44746727614101384     
         117           1   4.1102493867695298        9.9668250775291050       0.44746727614101384     
         118           1   3.5622161352002593        10.916046513484257       0.44746727614101384     
         119           1   5.2063158899080708        9.9668250775291050       0.44746727614101384     
         120           1   4.6582826383388003        10.916046513484257       0.44746727614101384     
         121           1   6.3023823930466119        9.9668250775291050       0.44746727614101384     
         122           1   5.7543491414773413        10.916046513484257       0.44746727614101384     
         123           1   7.3984488961851538        9.9668250775291050       0.44746727614101384     
         124           1   6.8504156446158833        10.916046513484257       0.44746727614101384     
         125           1   8.4945153993236939        9.9668250775291050       0.44746727614101384     
         126           1   7.9464821477544243        10.916046513484257       0.44746727614101384     
         127           1   9.5905819024622367        9.9668250775291050       0.44746727614101384     
         128           1   9.0425486508929662        10.916046513484257       0.44746727614101384     
         129           1   10.686648405600778        9.9668250775291050       0.44746727614101384     
         130           1   10.138615154031507        10.916046513484257       0.44746727614101384     
         131           1   11.782714908739319        9.9668250775291050       0.44746727614101384     
         132           1   11.234681657170048        10.916046513484257       0.44746727614101384     
         133           1  0.27401662578463531       0.79101786329596069        1.3424018284230415     
         134           1  0.82204987735390600        1.7402392992511135        1.3424018284230415     
         135           1   1.3700831289231765       0.79101786329596069        1.3424018284230415     
         136           1   1.9181163804924473        1.7402392992511135        1.3424018284230415     
         137           1   2.4661496320617178       0.79101786329596069        1.3424018284230415     
         138           1   3.0141828836309883        1.7402392992511135        1.3424018284230415     
         139           1   3.5622161352002593       0.79101786329596069        1.3424018284230415     
         140           1   4.1102493867695298        1.7402392992511135        1.3424018284230415     
         141           1   4.6582826383388003       0.79101786329596069        1.3424018284230415     
         142           1   5.2063158899080708        1.7402392992511135        1.3424018284230415     
         143           1   5.7543491414773413       0.79101786329596069        1.3424018284230415     
         144           1   6.3023823930466119        1.7402392992511135        1.3424018284230415     
         145           1   6.8504156446158833       0.79101786329596069        1.3424018284230415     
         146           1   7.3984488961851538        1.7402392992511135        1.3424018284230415     
         147           1   7.9464821477544243       0.79101786329596069        1.3424018284230415     
         148           1   8.4945153993236939        1.7402392992511135        1.3424018284230415     
         149           1   9.0425486508929662       0.79101786329596069        1.3424018284230415     
         150           1   9.5905819024622367        1.7402392992511135        1.3424018284230415     
         151           1   10.138615154031507       0.79101786329596069        1.3424018284230415     
         152           1   10.686648405600778        1.7402392992511135        1.3424018284230415     
         153           1   11.234681657170048       0.79101786329596069        1.3424018284230415     
         154           1   11.782714908739319        1.7402392992511135        1.3424018284230415     
         155           1  0.27401662578463531        2.6894607352062661        1.3424018284230415     
         156           1  0.82204987735390600        3.6386821711614190        1.3424018284230415     
         157           1   1.3700831289231765        2.6894607352062661        1.3424018284230415     
         158           1   1.9181163804924473        3.6386821711614190        1.3424018284230415     
         159           1   2.4661496320617178        2.6894607352062661        1.3424018284230415     
         160           1   3.0141828836309883        3.6386821711614190        1.3424018284230415     
         161           1   3.5622161352002593        2.6894607352062661        1.3424018284230415     
         162           1   4.1102493867695298        3.6386821711614190        1.3424018284230415     
         163           1   4.6582826383388003        2.6894607352062661        1.3424018284230415     
         164           1   5.2063158899080708        3.6386821711614190        1.3424018284230415     
         165           1   5.7543491414773413        2.6894607352062661        1.3424018284230415     
         166           1   6.3023823930466119        3.6386821711614190        1.3424018284230415     
         167           1   6.8504156446158833        2.6894607352062661        1.3424018284230415     
         168           1   7.3984488961851538        3.6386821711614190        1.3424018284230415     
         169           1   7.9464821477544243        2.6894607352062661        1.3424018284230415     
         170           1   8.4945153993236939        3.6386821711614190        1.3424018284230415     
         171           1   9.0425486508929662        2.6894607352062661        1.3424018284230415     
         172           1   9.5905819024622367        3.6386821711614190        1.3424018284230415     
         173           1   10.138615154031507        2.6894607352062661        1.3424018284230415     
         174           1   10.686648405600778        3.6386821711614190        1.3424018284230415     
         175           1   11.234681657170048        2.6894607352062661        1.3424018284230415     
         176           1   11.782714908739319        3.6386821711614190        1.3424018284230415     
         177           1  0.27401662578463531        4.5879036071165720        1.3424018284230415     
         178           1  0.82204987735390600        5.5371250430717245        1.3424018284230415     
         179           1   1.3700831289231765        4.5879036071165720        1.3424018284230415     
         180           1   1.9181163804924473        5.5371250430717245        1.3424018284230415     
         181           1   2.4661496320617178        4.5879036071165720        1.3424018284230415     
         182           1   3.0141828836309883        5.5371250430717245        1.3424018284230415     
         183           1   3.5622161352002593        4.5879036071165720        1.3424018284230415     
         184           1   4.1102493867695298        5.5371250430717245        1.3424018284230415     
         185           1   4.6582826383388003        4.5879036071165720        1.3424018284230415     
         186           1   5.2063158899080708        5.5371250430717245        1.3424018284230415     
         187           1   5.7543491414773413        4.5879036071165720        1.3424018284230415     
         188           1   6.3023823930466119        5.5371250430717245        1.3424018284230415     
         189           1   6.8504156446158833        4.5879036071165720        1.3424018284230415     
         190           1   7.3984488961851538        5.5371250430717245        1.3424018284230415     
         191           1   7.9464821477544243        4.5879036071165720        1.3424018284230415     
         192           1   8.4945153993236939        5.5371250430717245        1.3424018284230415     
         193           1   9.0425486508929662        4.5879036071165720        1.3424018284230415     
         194           1   9.5905819024622367        5.5371250430717245        1.3424018284230415     
         195           1   10.138615154031507        4.5879036071165720        1.3424018284230415     
         196           1   10.686648405600778        5.5371250430717245        1.3424018284230415     
         197           1   11.234681657170048        4.5879036071165720        1.3424018284230415     
         198           1   11.782714908739319        5.5371250430717245        1.3424018284230415     
         199           1  0.27401662578463531        6.4863464790268770        1.3424018284230415     
         200           1  0.82204987735390600        7.4355679149820304        1.3424018284230415     
         201           1   1.3700831289231765        6.4863464790268770        1.3424018284230415     
         202           1   1.9181163804924473        7.4355679149820304        1.3424018284230415     
         203           1   2.4661496320617178        6.4863464790268770        1.3424018284230415     
         204           1   3.0141828836309883        7.4355679149820304        1.3424018284230415     
         205           1   3.5622161352002593        6.4863464790268770        1.3424018284230415     
         206           1   4.1102493867695298        7.4355679149820304        1.3424018284230415     
         207           1   4.6582826383388003        6.4863464790268770        1.3424018284230415     
         208           1   5.2063158899080708        7.4355679149820304        1.3424018284230415     
         209           1   5.7543491414773413        6.4863464790268770        1.3424018284230415     
         210           1   6.3023823930466119        7.4355679149820304        1.3424018284230415     
         211           1   6.8504156446158833        6.4863464790268770        1.3424018284230415     
         212           1   7.3984488961851538        7.4355679149820304        1.3424018284230415     
         213           1   7.9464821477544243        6.4863464790268770        1.3424018284230415     
         214           1   8.4945153993236939        7.4355679149820304        1.3424018284230415     
         215           1   9.0425486508929662        6.4863464790268770        1.3424018284230415     
         216           1   9.5905819024622367        7.4355679149820304        1.3424018284230415     
         217           1   10.138615154031507        6.4863464790268770        1.3424018284230415     
         218           1   10.686648405600778        7.4355679149820304        1.3424018284230415     
         219           1   11.234681657170048        6.4863464790268770        1.3424018284230415     
         220           1   11.782714908739319        7.4355679149820304        1.3424018284230415     
         221           1  0.27401662578463531        8.3847893509371829        1.3424018284230415     
         222           1  0.82204987735390600        9.3340107868923354        1.3424018284230415     
         223           1   1.3700831289231765        8.3847893509371829        1.3424018284230415     
         224           1   1.9181163804924473        9.3340107868923354        1.3424018284230415     
         225           1   2.4661496320617178        8.3847893509371829        1.3424018284230415     
         226           1   3.0141828836309883        9.3340107868923354        1.3424018284230415     
         227           1   3.5622161352002593        8.3847893509371829        1.3424018284230415     
         228           1   4.1102493867695298        9.3340107868923354        1.3424018284230415     
         229           1   4.6582826383388003        8.3847893509371829        1.3424018284230415     
         230           1   5.2063158899080708        9.3340107868923354        1.3424018284230415     
         231           1   5.7543491414773413        8.3847893509371829        1.3424018284230415     
         232           1   6.3023823930466119        9.3340107868923354        1.3424018284230415     
         233           1   6.8504156446158833        8.3847893509371829        1.3424018284230415     
         234           1   7.3984488961851538        9.3340107868923354        1.3424018284230415     
         235           1   7.9464821477544243        8.3847893509371829        1.3424018284230415     
         236           1   8.4945153993236939        9.3340107868923354        1.3424018284230415     
         237           1   9.0425486508929662        8.3847893509371829        1.3424018284230415     
         238           1   9.5905819024622367        9.3340107868923354        1.3424018284230415     
         239           1   10.138615154031507        8.3847893509371829        1.3424018284230415     
         240           1   10.686648405600778        9.3340107868923354        1.3424018284230415     
         241           1   11.234681657170048        8.3847893509371829        1.3424018284230415     
         242           1   11.782714908739319        9.3340107868923354        1.3424018284230415     
         243           1  0.27401662578463531        10.283232222847488        1.3424018284230415     
         244           1  0.82204987735390600        11.232453658802642        1.3424018284230415     
         245           1   1.3700831289231765        10.283232222847488        1.3424018284230415     
         246           1   1.9181163804924473        11.232453658802642        1.3424018284230415     
         247           1   2.4661496320617178        10.283232222847488        1.3424018284230415     
         248           1   3.0141828836309883        11.232453658802642        1.3424018284230415     
         249           1   3.5622161352002593        10.283232222847488        1.3424018284230415     
         250           1   4.1102493867695298        11.232453658802642        1.3424018284230415     
         251           1   4.6582826383388003        10.283232222847488        1.3424018284230415     
         252           1   5.2063158899080708        11.232453658802642        1.3424018284230415     
         253           1   5.7543491414773413        10.283232222847488        1.3424018284230415     
         254           1   6.3023823930466119        11.232453658802642        1.3424018284230415     
         255           1   6.8504156446158833        10.283232222847488        1.3424018284230415     
         256           1   7.3984488961851538        11.232453658802642        1.3424018284230415     
         257           1   7.9464821477544243        10.283232222847488        1.3424018284230415     
         258           1   8.4945153993236939        11.232453658802642        1.3424018284230415     
         259           1   9.0425486508929662        10.283232222847488        1.3424018284230415     
         260           1   9.5905819024622367        11.232453658802642        1.3424018284230415     
         261           1   10.138615154031507        10.283232222847488        1.3424018284230415     
         262           1   10.686648405600778        11.232453658802642        1.3424018284230415     
         263           1   11.234681657170048        10.283232222847488        1.3424018284230415     
         264           1   11.782714908739319        11.232453658802642        1.3424018284230415     
         265           1  0.27401662578463531       0.15820357265919213        2.2373363807050692     
         266           1  0.82204987735390600        1.1074250086143449        2.2373363807050692     
         267           1   1.3700831289231765       0.15820357265919213        2.2373363807050692     
         268           1   1.9181163804924473        1.1074250086143449        2.2373363807050692     
         269           1   2.4661496320617178       0.15820357265919213        2.2373363807050692     
         270           1   3.0141828836309883        1.1074250086143449        2.2373363807050692     
         271           1   3.5622161352002593       0.15820357265919213        2.2373363807050692     
         272           1   4.1102493867695298        1.1074250086143449        2.2373363807050692     
         273           1   4.6582826383388003       0.15820357265919213        2.2373363807050692     
         274           1   5.2063158899080708        1.1074250086143449        2.2373363807050692     
         275           1   5.7543491414773413       0.15820357265919213        2.2373363807050692     
         276           1   6.3023823930466119        1.1074250086143449        2.2373363807050692     
         277           1   6.8504156446158833       0.15820357265919213        2.2373363807050692     
         278           1   7.3984488961851538        1.1074250086143449        2.2373363807050692     
         279           1   7.9464821477544243       0.15820357265919213        2.2373363807050692     
         280           1   8.4945153993236939        1.1074250086143449        2.2373363807050692     
         281           1   9.0425486508929662       0.15820357265919213        2.2373363807050692     
         282           1   9.5905819024622367        1.1074250086143449        2.2373363807050692     
         283           1   10.138615154031507       0.15820357265919213        2.2373363807050692     
         284           1   10.686648405600778        1.1074250086143449        2.2373363807050692     
         285           1   11.234681657170048       0.15820357265919213        2.2373363807050692     
         286           1   11.782714908739319        1.1074250086143449        2.2373363807050692     
         287           1  0.27401662578463531        2.0566464445694979        2.2373363807050692     
         288           1  0.82204987735390600        3.0058678805246504        2.2373363807050692     