LAMMPS data file via write_data, version 17 Nov 2016, timestep = 40000

4441 atoms
1 atom types

0.0000000000000000e+00 1.2056731534523953e+01 xlo xhi
0.0000000000000000e+00 1.1390657231461834e+01 ylo yhi
0.0000000000000000e+00 3.2217643882152991e+01 zlo zhi

Masses

1 1

Atoms # atomic

1170 1 5.3567758593585344e+00 1.6733533411074142e+00 6.3282094757789968e+00 0 1 0
3668 1 5.4460911850284388e+00 2.0486787689998023e+00 4.2862898956365942e+00 0 1 0
1379 1 1.1338090886038328e+00 2.0172658681656758e-01 6.1275192859675434e+00 0 1 0
1244 1 3.7144601987522288e+00 8.2414045651585499e-01 7.2320969777796318e+00 0 1 0
1279 1 4.8894593967174895e+00 1.1986992755366981e+00 1.0617689036549571e+00 0 1 0
3460 1 1.6871866625190357e+00 2.0696658678648956e+00 1.7982123659869420e-01 1 1 0
1072 1 5.5812555542346525e+00 4.9163232758862003e+00 3.4948993693558670e+00 0 0 1
491 1 1.2714346043994063e+00 4.3964746121235532e+00 1.0516288900982818e+01 0 0 0
2638 1 3.1482599543094070e+00 3.6760968123395639e+00 5.4246361791892328e+00 0 1 0
355 1 5.7728682573523189e+00 3.6062495339156564e-01 5.5675627134800232e+00 -1 1 0
280 1 2.0027375294777721e+00 1.7872741113096988e+00 4.8019872277793274e+00 0 0 0
1437 1 2.2026781620866323e+00 5.2146102893869308e+00 7.4890408296779158e+00 0 1 0
2424 1 5.5326291931070557e+00 3.4921822549329966e+00 5.2089939241439600e+00 0 0 0
2479 1 2.3561580810511962e+00 3.7555419475703484e+00 7.0773366863721776e+00 0 0 0
1198 1 3.5338572333080212e+00 5.0555023238073540e+00 5.8193878847705083e+00 0 0 0
3590 1 9.1830102166713456e-01 2.7295038591136880e+00 3.6445194427387460e+00 1 1 0
2465 1 2.8455351939101772e+00 3.6068011055451850e+00 7.9628172534160502e+00 0 0 0
1343 1 5.9901410317197523e-01 1.0240811649907254e-01 4.2501221705354508e+00 0 1 0
3446 1 2.1954829303605581e+00 3.6349743717113459e+00 9.1355746807211080e+00 0 0 0
1202 1 2.7136633444540281e-01 4.6272347564059571e+00 6.8201053223263353e+00 0 0 0
1185 1 3.6656455480882753e+00 2.7290760152439657e+00 3.0586408557178673e+00 0 1 0
3492 1 2.0648357578094285e+00 2.0042721177666906e-01 3.5471703663910485e+00 1 1 0
218 1 5.2257539061967995e+00 4.4612389312988761e+00 5.4783775630161111e+00 0 0 0
258 1 2.4243281678749269e+00 2.7577392572871742e+00 7.4326689152143164e+00 0 1 0
1446 1 2.9411114289220617e+00 2.7183734687646977e-01 5.4824346921454969e+00 0 1 0
4409 1 1.5980426987779348e+00 4.2212684778979653e-01 2.2270704933325702e+00 1 1 1
3134 1 1.9493430495284075e-01 3.2203369275373586e+00 4.5039322519034410e+00 1 0 1
2383 1 4.5692311805638246e+00 2.2664664382469280e+00 9.7748516280942965e+00 0 1 0
2126 1 4.8236861903606156e+00 2.2322393789775878e+00 9.1947922647102709e-01 0 1 1
1132 1 3.4795067533154644e+00 1.4105740435429570e+00 2.4498303955322687e+00 0 0 0
359 1 5.3644610575907139e+00 1.7617016980803027e-01 7.9819617936814256e+00 0 1 0
256 1 4.1537579530710822e-01 2.0836850168848833e-01 2.3687051458624406e+00 0 0 0
253 1 4.1524219270914235e+00 3.2312913118505109e+00 9.6474548297375264e+00 0 0 0
2237 1 3.0359616776225575e+00 4.2336869666491639e+00 6.2996492952265344e+00 0 0 0
1003 1 1.1036781996831826e+00 3.5748623846511096e+00 1.2583139738195612e-01 0 0 1
429 1 4.9744795309571694e+00 3.3061726501098110e+00 1.0331226548645519e+01 0 0 0
1181 1 8.8525570868470127e-01 1.8371112707428843e+00 7.7901943092002686e+00 0 1 0
1318 1 4.2518726997946592e+00 4.0022966913688238e+00 1.0296910126565193e+01 0 1 0
74 1 4.5931176263748297e+00 1.4592615963530056e+00 8.9622522570247867e+00 0 0 0
3630 1 4.9645360827686833e+00 2.6637949645746356e-01 1.4003250731846302e+00 0 1 0
2268 1 4.7339277968825897e+00 4.5413950636024021e+00 9.5856135206813988e+00 1 0 0
1280 1 2.6084713681131606e+00 4.2580961092232332e+00 4.1923323271728297e+00 0 0 0
3442 1 4.7104443890625696e+00 4.7093230249283362e+00 3.0021748986401939e+00 0 0 0
524 1 5.8477658973115796e+00 1.9644045906172900e+00 7.5442771518760647e+00 0 0 0
3351 1 2.7885032186873571e+00 5.1345656309612879e+00 1.2944144901603711e+00 1 0 0
3558 1 7.5186593829140469e-01 4.2150830009482245e+00 5.9350690033651325e+00 1 1 0
1197 1 3.8472205022708779e+00 3.6519257392568081e+00 2.9247842602032120e-01 0 0 0
1234 1 3.5165988512845208e+00 1.9325123740341970e+00 1.1707340987455064e+00 0 1 0
1149 1 1.9609340540437001e+00 2.6261092566750577e+00 4.1693870498552847e+00 0 1 0
3716 1 4.4271916210508611e+00 9.1943394478933582e-01 7.9891498189112378e+00 0 1 0
296 1 4.9158461475011395e+00 2.3179763978252463e+00 7.0765485898609946e+00 0 1 0
265 1 5.5468196871162956e+00 5.3644695217301042e+00 6.1353753426540880e+00 0 0 0
316 1 5.4108721918196299e+00 3.0939248666746009e+00 4.2402805267337218e+00 0 0 0
1519 1 4.2287050064195508e+00 5.0616544244855630e+00 1.0399805552264864e+01 0 1 0
1422 1 4.1609206503227929e+00 1.2958883675318016e+00 3.1326477588914434e+00 0 1 0
1518 1 4.1810759357886935e+00 1.7477255536881904e+00 7.2389406514070194e+00 0 1 0
3086 1 1.1068431746841056e+00 5.6274251086162961e+00 5.8291850732125494e-01 1 0 1
137 1 1.1269571518270058e+00 1.0582653634102326e+00 5.5931623242662258e+00 0 0 0
451 1 2.6936992368417179e+00 7.1333233520242600e-01 7.2280214734834480e+00 0 0 0
2615 1 7.7122382603147766e-01 1.7424323372731025e+00 9.4979565663549987e+00 0 0 0
1412 1 3.7846016607566737e+00 3.1381486517555446e-01 6.2170809513901268e+00 0 1 0
2376 1 1.9412894033794694e+00 4.6931616411041039e+00 1.5914894197171741e+00 1 0 0
3524 1 2.5522759220140783e+00 1.0782517288853866e+00 3.7642804023357788e+00 0 1 0
1365 1 8.7152586668728382e-01 2.0728652695774952e+00 4.9844615163510140e+00 0 1 0
2594 1 3.8922524877671449e+00 3.4299741577733025e+00 6.4103419789306288e+00 0 0 0
1440 1 3.1662249061156560e+00 7.0440872907626040e-01 3.2393765817099736e+00 0 1 0
4401 1 3.6123652963867325e+00 1.0151751186985438e+00 5.5229774375224032e+00 0 1 1
1116 1 3.1115364606131724e-01 1.8909742629839283e+00 3.3168981881937665e+00 1 0 1
1358 1 3.8649930908766592e+00 5.4034836354995269e-04 3.2623887918465488e+00 0 1 0
333 1 2.5282811983844755e-01 2.9790280765209163e+00 1.0722924441505436e+01 0 0 0
269 1 5.1673637362357496e+00 5.8030462113772718e-01 8.8859537875909069e+00 0 0 0
1111 1 2.2409038203595988e+00 1.5684925832822096e+00 5.8219735885031598e+00 0 0 1
1214 1 3.7322757321891014e+00 3.2260641630395170e+00 1.0670393331914514e+01 0 1 0
3491 1 3.0929496054131236e+00 3.0334283387124605e+00 3.9571898757639952e-02 1 1 0
1546 1 4.7550501708155446e+00 1.0286891750976292e+00 5.5046479488812103e+00 0 1 0
1179 1 1.9889895134598619e+00 3.6135990698518861e-01 4.4867859935708998e-01 0 1 0
2656 1 1.8430815081435279e+00 4.7543362062453172e+00 8.9397943752612559e+00 1 0 0
2177 1 8.6731010434920874e-01 3.6648076967966787e+00 5.1870144767612274e+00 0 1 1
3809 1 4.1810153504267920e+00 2.5209138853779853e+00 6.2807031195767618e+00 1 0 0
167 1 2.0568936070732651e+00 5.4281434031935349e+00 3.1278657113811654e+00 0 0 0
2604 1 4.9979265440409169e+00 3.9754398154750490e+00 6.4731612429673717e+00 0 0 0
1428 1 3.3576391832569250e+00 1.7743072011754726e+00 3.5884544897233552e+00 0 1 0
3555 1 1.8831734638314737e+00 5.0968177329160025e-01 7.8454631742173504e+00 1 1 0
2369 1 3.7394800953995535e+00 3.2501672808225335e+00 2.1089266821089798e+00 0 0 0
1448 1 4.6078522260416612e+00 5.1909629303356626e+00 6.0637368701039565e+00 0 1 0
273 1 1.1284337206628003e+00 7.1894761594899281e-01 7.2141320632939729e+00 0 0 0
1252 1 1.5064322507685575e+00 9.3996156500493111e-01 4.2887652585755847e+00 0 1 0
1097 1 1.5699976871965438e+00 1.7014537571912973e+00 1.1735465594681351e+00 0 0 1
2488 1 4.4297814058366791e+00 4.9282598834144622e+00 5.0203815398659986e+00 0 0 0
106 1 5.5420800504529200e-01 8.5941501525768449e-01 3.4122655633135768e+00 0 0 0
433 1 3.9953240953132180e-01 9.2060818212587303e-01 8.9658090890010875e+00 0 0 0
2552 1 3.2765081247107659e+00 6.8366263172731312e-01 9.4956846245692628e+00 1 0 0
4428 1 3.5525143324056541e+00 2.8636050012441432e+00 5.3849453462726933e+00 1 1 1
2418 1 2.0074614502788051e+00 2.8362794213460907e+00 2.6836358979779757e+00 1 1 0
3279 1 4.3880004962031522e+00 4.1785784103140111e+00 2.0997541179229486e+00 0 0 1
238 1 4.0143832867003644e+00 5.2459697877231781e-01 8.8994418660629098e+00 0 0 0
1292 1 5.0709399413207015e+00 1.2689459684456545e+00 7.2576816823180357e+00 0 1 0
2393 1 1.1377784831785527e+00 1.5887705911229100e-01 5.0523791168179928e+00 1 0 0
3282 1 4.6431477016173854e+00 4.9061948882730668e+00 4.0362795163466387e+00 0 0 1
1350 1 2.9088198851073508e+00 4.4254890185191140e+00 9.0639432922266430e+00 0 1 0
3343 1 3.8952677912317579e+00 1.7496058737526616e+00 8.2168784714519774e+00 0 1 0
2423 1 2.1762787817620866e-01 2.1497610203497581e+00 4.2848931580553273e+00 1 0 0
146 1 2.4490406600771730e+00 1.3189000053921318e+00 7.6164727042928426e-01 0 0 0
2206 1 5.7302919435569040e+00 3.8595873595231889e+00 2.6625607864759151e+00 0 1 1
3585 1 5.0614488809571760e+00 3.1749026733735102e+00 9.3775801807852339e+00 0 1 0
1247 1 6.6900365636300219e-01 4.5547864299791305e+00 4.4301984329413067e+00 0 0 0
2360 1 8.8390693761247341e-01 5.2783051197545037e+00 2.9393876303363453e+00 1 0 0
270 1 3.4686944056079221e+00 2.4052234738339600e+00 9.7572610387155123e+00 0 0 0
1457 1 2.3828156740879098e+00 1.4897608625709129e+00 7.9235069150134798e+00 0 1 0
1029 1 4.9379936466209390e-02 9.9657794372641384e-01 9.5323624690512465e-01 0 0 1
143 1 5.4564117765715547e+00 4.7121642428904371e+00 7.9069959011445290e+00 0 0 0
186 1 2.7564263753431555e+00 5.5201990695873020e+00 8.8198003652132257e+00 0 0 0
424 1 1.9135307987283889e+00 5.0881235961406341e+00 1.0056149231373469e+01 0 0 0
2340 1 3.3849811840081365e+00 5.6701144626543645e+00 1.0566857499429595e+01 1 0 0
18 1 5.3912797823815941e+00 2.8794940300195719e+00 6.1044643119179289e+00 0 0 0
1371 1 3.3337957166154921e+00 4.5004043558365305e+00 4.8128255782580824e+00 0 1 0
3616 1 2.1854017434636330e+00 3.8898966748873458e+00 2.4067984378023799e+00 1 1 0
1020 1 5.0764671127637220e+00 4.6708217906051637e+00 1.0602252303163604e+00 -1 0 1
2166 1 7.8163891714104983e-01 1.7114435492994775e+00 6.4937770317480148e-01 0 1 1
3543 1 5.1879454129305973e+00 1.6704632048435113e+00 3.4140072460459883e+00 0 1 0
2472 1 4.8901164143757079e+00 3.2627115027584561e+00 2.2050837053038781e+00 0 0 0
3556 1 5.2502545223255312e+00 3.0392967493428191e-01 3.3857587353975455e-01 1 1 0
1240 1 2.9176349083409621e+00 1.0901657007870593e+00 6.3754060624335871e+00 0 1 0
3551 1 4.4882780841837686e+00 3.0504411468861958e+00 3.7844126635615241e+00 0 1 0
2603 1 1.8817714072562977e-01 5.4721682301458499e+00 6.1287737441665735e+00 1 0 0
3394 1 1.3557336278803978e-01 4.7169627465933441e+00 2.7002701447611854e+00 1 0 0
2499 1 2.5350073673046047e+00 3.2627969873006357e+00 4.6486950008431531e+00 0 0 0
3493 1 2.6882892333413051e+00 5.6335499755940059e+00 5.6000072683606446e+00 1 1 0
3011 1 8.9430403093014144e-01 3.5223760182058177e+00 1.1412260574480726e+00 1 0 1
232 1 1.4365237676910099e+00 2.8465579208387859e+00 4.9864793234399052e+00 0 0 0
44 1 3.2855720954789311e+00 3.5851722932334997e+00 3.6923246942912535e+00 0 0 0
1956 1 3.2840774780557838e+00 2.9907685662004488e+00 1.2164152836630366e+00 0 0 1
3744 1 2.2247588962256724e+00 4.1940837361354077e+00 9.9856883551554176e+00 0 0 0
3541 1 2.2381599922988746e+00 1.9748347075474475e+00 1.8661538827180286e+00 0 0 0
1530 1 2.4436643887929238e-01 4.0802962593230330e+00 7.6946561925310144e+00 0 0 0
36 1 4.2816255941635299e+00 5.6143030810719132e+00 1.3709223529368092e-01 0 -1 0
3483 1 3.8607444085600937e+00 5.2864596674572066e+00 2.9099027381588467e+00 1 0 0
3651 1 4.7310426680513542e+00 1.9973644734820299e+00 7.9789647350010222e+00 0 1 0
4441 1 3.3426496297496691e+00 4.6221365054008086e+00 3.5773407443761818e-01 0 1 1
45 1 2.4331144746255329e+00 2.9065260876073640e+00 8.4883793599218400e+00 0 0 0
3684 1 3.7769497838374253e+00 3.5925761716478886e+00 4.6405291490052134e+00 0 1 0
2612 1 4.5831633555101075e+00 5.1313340940378334e+00 8.5804858687233470e+00 1 0 0
363 1 3.1571238679425999e+00 4.6398765868336600e+00 7.3717390130858664e+00 0 0 0
1121 1 1.8085671334021112e+00 2.1729215639122663e+00 3.3505901843155654e+00 0 0 1
1146 1 5.2497656258223531e+00 4.4825386128864073e+00 1.0618147358623894e+01 -1 1 0
1389 1 1.5980087217749250e+00 3.3648017251163180e+00 1.0426311037183106e+01 0 1 0
147 1 2.8976107473138026e+00 3.2868630581587093e+00 2.6686728289694819e+00 0 0 0
201 1 5.3234621780853111e+00 4.0305079129045609e+00 1.7263579810839040e+00 0 0 0
151 1 5.7104751810965162e+00 1.4193695473291863e+00 5.1279360353074939e+00 0 0 0
3463 1 1.6176907674752257e+00 5.0917608014068216e+00 5.6876351742972506e+00 0 0 0
1403 1 2.8058069660542340e+00 2.2162766975873134e+00 9.0899622641488271e+00 0 1 0
1241 1 5.2595378058219708e+00 5.6500404628588816e+00 3.6444310861679058e-01 0 0 0
1049 1 6.6372694939389076e-01 5.5691880726374690e+00 4.0965832008161236e+00 0 0 1
2579 1 5.5909778700409820e+00 1.5661655079248011e+00 9.3151385882168594e+00 0 1 0
140 1 5.3128121123784835e+00 3.9545145341432808e+00 3.6093004590439244e+00 0 0 0
3500 1 1.3168357673556026e+00 1.5916905381671580e+00 2.2586611084545476e+00 1 1 0
2452 1 4.7501027579567925e+00 1.4094175731125316e+00 4.6542504600633832e+00 0 1 0
3598 1 5.9482973271756387e+00 8.5504049814922634e-01 7.5492947293292767e+00 0 1 0
211 1 5.3469766537573156e+00 1.3581598022178782e+00 8.3307682227156779e+00 0 0 0
1462 1 3.5281263729629448e+00 4.6490463954182459e+00 8.3204450179559082e+00 0 0 0
3375 1 2.0256023658633282e+00 7.3964775030501995e-01 1.4458821072985641e+00 0 1 0
1019 1 3.1989464856643450e+00 2.4313058720577274e+00 2.0926159286268469e+00 0 0 1
3654 1 4.7075556074947755e+00 6.3954523817228354e-02 5.7560425997963414e+00 0 1 0
1628 1 3.3937663239593867e+00 2.6662250723999539e+00 7.0916845649886584e+00 0 1 0
2537 1 5.8367690870934910e+00 2.7473674672204624e+00 1.0590764057104323e+01 0 1 0
179 1 1.2586926365949391e+00 2.7111839448650787e+00 7.4894988156384812e-01 0 0 0
1559 1 8.5588748836190753e-01 4.6607870751761915e+00 8.4392856321211642e+00 0 1 0
144 1 1.5845125258861650e+00 5.4055673463444744e+00 2.1946988962865714e+00 0 0 0
3514 1 3.6825322891797843e+00 2.5890381377765617e+00 4.4343148342589691e+00 0 1 0
2406 1 1.3871744210918684e+00 4.4703500421237674e+00 2.6961240786941318e+00 1 0 0
1124 1 3.0646002227264009e+00 3.5609249907692264e-01 1.0968679760220121e+00 0 0 0
2428 1 5.0935414511494437e-01 2.0404753635212916e+00 1.0451524344495501e+01 1 0 0
405 1 5.1940477061835431e+00 2.2976717680953453e+00 8.8180228271502603e+00 0 1 0
251 1 1.9127918428401058e+00 1.1351590549759141e+00 6.6016981611761851e+00 0 0 0
2494 1 5.5039243022315567e+00 4.9753703745649636e-01 6.5662651450708722e+00 0 1 0
1391 1 4.6887301607917067e+00 2.5862029393685790e+00 4.6806989565714545e+00 0 1 0
81 1 1.3121465163932919e+00 4.4608767281243962e+00 5.8959696976452114e-01 0 0 0
2600 1 9.2206733503756888e-01 5.2857591235377184e+00 1.0478834151262358e+01 0 0 0
2367 1 3.9141686347194384e+00 4.2732926540715912e+00 3.8153658294876514e+00 0 0 0
1473 1 2.7644006841382978e+00 5.3072488721770856e+00 6.5749092721114941e+00 0 1 0
3522 1 1.0299646751334031e+00 5.3321096930681025e+00 6.8177925793260723e+00 1 1 0
2470 1 3.4708222434006162e+00 1.8085861037214157e+00 6.1539387182429675e+00 0 0 0
2352 1 4.8306297713357189e+00 4.0219701005499369e+00 4.6064371860792859e+00 0 1 0
3474 1 5.1962577559975287e+00 1.9864206842229595e+00 2.0045141724929474e+00 0 1 0
1401 1 3.0275527653898373e+00 2.4616994197755013e+00 1.0638864475863327e+01 -1 1 0
1287 1 5.1690824220870777e+00 3.5381628584462099e+00 8.9073917975210681e-01 0 1 0
3567 1 8.3000240976898745e-02 1.0120265211062476e+00 7.2125490826739389e+00 1 1 0
1210 1 2.8250073905980386e+00 2.0575763268085598e+00 4.4107860963017753e+00 0 1 0
52 1 7.6415582042147323e-02 3.6608609515797097e+00 3.5895471918694617e+00 0 0 0
914 1 4.2666867937198010e+00 2.3247394179508158e+00 1.8073316344420138e+00 0 0 1
188 1 3.2910669795662253e+00 3.2337259519723807e+00 9.0540499642363095e+00 0 1 0
2377 1 4.2050447631258585e+00 4.2070663729315187e+00 1.0488608315699384e+00 0 0 0
2285 1 2.0495672965935081e+00 3.2797205349871863e+00 1.4735772076123111e-02 0 0 0
1444 1 5.7499200898274054e+00 5.8806223848186634e-01 1.0361211765141181e+01 0 1 0
124 1 1.1863268095197819e+00 4.5026980600902204e+00 7.5354408154398387e+00 0 0 0
3686 1 2.6522428159493607e+00 2.1668674931687839e+00 6.5148686991844107e+00 1 1 0
395 1 9.2483755354744590e-01 2.5367737258742560e+00 6.9194734110388580e+00 0 0 0
233 1 3.8303067255735388e+00 2.7716802940847627e+00 7.9701084122011698e+00 0 0 0
2592 1 4.7615225725000325e+00 4.8488367618423484e-01 3.3215439015830945e+00 0 0 0
2582 1 9.5166188967294552e-01 8.7454081554237684e-01 1.5609613028214040e+00 1 0 0
97 1 3.1960797158738168e+00 5.6475683584418803e+00 7.5132585364853197e+00 0 0 0
164 1 1.1205445794153674e+00 3.6516352731145316e+00 4.1740672951776832e+00 0 0 0
329 1 4.3322696984574574e+00 1.3310068505327435e+00 6.3375484827925366e+00 0 1 0
3312 1 1.9433874665390130e+00 5.4868184608106851e-01 5.6371637554918488e+00 1 1 1
1458 1 3.2861130906573623e+00 5.1021122119326578e-01 4.2319419555297237e+00 0 1 0
315 1 2.4424875766642686e+00 1.2122726445137031e+00 9.0258314319681627e+00 0 0 0
2234 1 2.2093857566085990e+00 4.8256106621976285e+00 4.7975571335158035e-01 1 0 0
1431 1 1.3566417514610276e+00 5.1989566018755529e+00 4.7126997025823885e+00 0 0 0
2541 1 1.6562729336696940e+00 2.3036587789770793e+00 8.0616525447689558e+00 1 0 0
3071 1 1.8909757420550255e+00 3.7445357505326857e+00 1.1795273048800210e+00 1 0 1
384 1 4.6137179143034723e+00 3.2711798908816236e+00 5.6186681759959161e+00 0 0 0
3579 1 4.4042477276631438e+00 2.0326437303751859e+00 3.8377340922992427e+00 0 1 0
1429 1 3.1900679387919246e+00 1.6529720052350236e+00 7.2692479095200948e+00 0 1 0
3586 1 1.4042838063202199e+00 2.0411215641020730e+00 6.0759464597797352e+00 0 1 0
234 1 3.3806296591591796e+00 2.8757655092492873e-01 2.1445500737730399e+00 0 0 0
1453 1 5.6716669096225178e+00 2.4858265045335854e+00 9.6706941676160145e+00 0 1 0
3825 1 5.7903092472779543e+00 3.9209679222264566e+00 9.7368004598322191e+00 0 1 0
43 1 2.6554479115207110e+00 2.0222613171876169e+00 2.8027180951360666e+00 0 0 0
2226 1 5.4748717524619144e+00 3.5168449514258920e-01 2.3498676943742765e+00 1 0 0
277 1 1.3857362316911150e+00 3.8143417234470758e+00 8.5493091720159846e+00 0 0 0
3214 1 2.0462374911042636e+00 3.5541951168105927e+00 3.5722391182149087e+00 1 0 1
318 1 1.7776146493237628e+00 1.9787876974717038e+00 7.1608831229234182e+00 0 0 0
4396 1 5.8553578626875658e-01 2.0182347502148694e+00 1.6071440908266656e+00 1 1 1
1267 1 4.5152421380933490e+00 4.3615404317998232e+00 7.7412166378038281e+00 -1 0 0
3589 1 1.6641619176769658e+00 4.2887436537967636e+00 4.8621348571944827e+00 1 1 0
1352 1 4.9795505091018279e+00 2.0835143401806913e+00 5.5029169189526081e+00 0 1 0
4200 1 3.6573661310278854e-01 5.6861693167957705e+00 2.0686651621915781e+00 1 0 1
3299 1 4.9689291419450994e+00 4.8397309529734756e+00 6.8556791444570591e+00 0 0 1
1438 1 1.6982762569037026e-03 5.0534875001081003e+00 8.8074394389028594e+00 0 1 0
2239 1 2.6751090239400610e+00 1.0471792487776661e+00 4.8229086214370280e+00 1 0 0
3587 1 2.4438673655779435e+00 2.2590721554799942e-01 8.7692238592614338e+00 0 1 0
3496 1 4.5334028690352817e+00 5.1616614307195237e+00 1.8707283651754572e+00 0 0 0
2400 1 5.4421747284156794e+00 2.8599845275240949e+00 7.6571691767131256e+00 0 0 0
152 1 3.6457895073071773e+00 4.2428428032413699e+00 2.7450643108523072e+00 0 0 0
1322 1 1.0934833450710424e+00 1.7652954548814330e+00 3.9578850562589341e+00 0 1 0
1266 1 5.8175225686107943e+00 2.4713661576531205e+00 5.1447547183526234e+00 -1 1 0
1122 1 2.9692141486950443e+00 2.1389843523945715e+00 4.2509672903362394e-01 0 0 1
1455 1 1.5887610521104549e+00 2.8082393928169846e+00 9.0712040539440153e+00 0 1 0
3763 1 4.6664480426689731e-01 5.3890711755303036e+00 7.8303845720168086e+00 1 1 0
3750 1 3.9735998643947319e+00 1.4270058596171391e+00 9.8325813878732227e+00 0 1 0
1183 1 6.4248475223106627e-01 8.6271580740954623e-01 1.0099870646317012e+01 0 1 0
271 1 1.5118261067755581e+00 5.4628846698430493e+00 8.2574803732637871e+00 0 0 0
2474 1 1.0315844839313968e+00 5.0825039735744548e+00 1.3607526815239377e+00 1 0 0
1164 1 8.7564005723195260e-01 2.4817953078935950e+00 2.6089361222520946e+00 1 0 0
4370 1 5.4081673112346751e+00 4.8633072481821218e+00 2.2881421862061937e+00 1 0 1
120 1 1.9449078472168291e+00 2.9305367594263387e+00 6.5946573193286593e+00 0 1 0
3568 1 9.2301484308987436e-01 3.6282176395334638e+00 6.8561849092827618e+00 1 1 0
413 1 4.0442336924687767e+00 2.0327998993980145e+00 1.0578628590618051e+01 0 0 0
1199 1 2.7633848797757690e+00 5.1542318353811005e+00 2.4150544729574168e+00 0 0 0
398 1 5.0888927349446069e+00 3.7151302304570716e-01 4.8014050754974802e+00 0 1 0
118 1 1.6908584481027142e+00 4.4672412201016289e+00 6.5959137944497028e+00 0 0 0
60 1 2.9092565247375596e-01 3.7269197653070587e+00 2.5634251727558630e+00 0 0 0
2058 1 4.2753099310794624e+00 3.5188487058871892e-01 6.8918614803221800e-01 0 1 1
1312 1 3.1335821405724271e+00 9.4643060104307564e-01 8.2069332267801833e+00 0 1 0
113 1 9.8235423700112778e-01 3.0031912125840026e+00 5.9454575960326386e+00 0 0 0
2301 1 6.0073410587334064e-01 5.0312874860588028e+00 5.2848424581680540e+00 1 0 0
1127 1 2.6508991810657143e+00 4.3542420972214115e+00 3.1868155105965603e+00 0 0 0
2943 1 1.4682268313693103e+00 1.1955017550647704e+00 8.4169839850598773e+00 1 0 0
3478 1 4.3995328487929006e+00 1.6333491061105849e+00 2.4315650533896555e-01 1 1 0
2522 1 1.2844229958123776e+00 3.8441940951064648e+00 9.5204558553482599e+00 0 0 0
2135 1 3.3743979637932714e-01 1.2695223745374553e+00 2.4356728708533693e+00 0 0 1
3733 1 4.1822543518473161e+00 5.2857713356237159e+00 7.6680222556904161e+00 0 0 0
289 1 4.0535513007445996e+00 1.9390689692652334e+00 5.2996561229257884e+00 0 0 0
171 1 2.4192432437103091e+00 2.5367754008808099e+00 5.5022053234306352e+00 0 0 0
1806 1 1.7476375316754655e+00 1.9115928052193434e+00 9.1314564195696981e+00 0 0 0
3764 1 4.8856379063714721e+00 2.6896201328868136e-01 1.0635371703925987e+01 0 1 0
2298 1 2.5875865473076693e+00 2.9687204713327153e+00 9.8594589225322373e+00 1 0 0
189 1 1.1636850314173752e+00 1.6049025011536130e-01 3.1898267190208869e+00 0 1 0
3173 1 2.8659772423318906e+00 3.8225071034217266e+00 7.3045722476290509e-01 0 0 1
1342 1 4.1502530134381912e+00 4.2571458965382289e+00 5.7690045923828803e+00 0 1 0
3168 1 5.9238005349930418e+00 4.3254835855473459e+00 8.0399617501230169e-01 0 0 1
4284 1 1.7224667911715663e+00 4.6787849794270340e+00 3.6550447593996873e+00 1 0 1
420 1 9.8513293825613102e-01 2.8251686122123822e+00 9.9062687031712837e+00 0 0 0
2349 1 1.9416276201317237e-01 1.1486494994242447e+00 5.6472864738106683e+00 1 1 0
2183 1 5.0760350129947227e+00 2.7651414603336852e+00 1.3120603072925294e-01 0 1 1
2690 1 1.4283835007262938e-01 4.6312091136579276e+00 1.0469980099223168e+01 1 0 0
3564 1 3.9186276029668061e+00 4.7346386420379734e+00 6.7478913646920171e+00 0 0 0
1404 1 5.7995268099887543e-01 4.3465920679566716e+00 1.8055282577231597e+00 0 1 0
2534 1 5.5914195495652903e+00 5.1830741967235729e+00 8.8443511837138065e+00 0 0 0
2265 1 6.8251496444562665e-01 4.3595669361429970e+00 3.4573630168899463e+00 1 0 0
3224 1 3.8867245735160860e-01 2.8442457295155683e+00 4.5925966763080078e-01 1 0 1
2304 1 2.5137248525877527e+00 3.1315343555678266e+00 1.7575485710493184e+00 0 0 0
2065 1 3.0307130832513054e+00 5.5375830403671653e+00 3.8783711927021564e-01 0 0 1
1543 1 1.5617715108250290e+00 2.0606456684650327e+00 1.0155129163965769e+01 0 1 0
3802 1 4.1410457386130695e+00 4.0626252546877034e-01 9.8663312896265651e+00 1 1 0
931 1 4.3595289527194856e+00 4.6055072315242427e+00 6.4556880200981714e-02 0 0 1
293 1 5.1489417348825723e+00 4.1050478996907236e+00 8.7288718186959695e+00 0 0 0
203 1 5.3898593260335401e+00 2.9326909091415843e+00 3.2333974088969177e+00 0 0 0
3634 1 4.6791483206957238e+00 3.3624066473959275e+00 7.2121519783372223e+00 0 0 0
3513 1 4.4461310979625095e+00 2.1035646214742623e+00 2.8139746111873025e+00 0 1 0
1645 1 3.1553435177244173e+00 1.1648330365966593e+00 1.0355827818268372e+01 0 1 0
1494 1 5.5190887843529195e+00 9.3946438914024288e-01 4.1382379585371387e+00 0 1 0
6 1 4.0222766960731633e+00 3.6550283642689321e+00 8.5700269367119422e+00 0 0 0
3376 1 4.3804460952854196e+00 1.4165778764667439e-01 2.3655576273765679e+00 0 1 0
1608 1 2.0962350791944084e+00 4.2289233111302984e+00 8.0269413985743192e+00 0 0 0
304 1 5.8838020487345561e+00 3.2768648612381228e+00 8.9627662873061471e+00 0 0 0
3450 1 2.9186890320361725e-01 4.6987979649356220e+00 7.5253264422678712e-01 1 0 0
402 1 1.7856260423793491e+00 1.1566589579453348e+00 1.0404989542345081e+01 0 0 0
2646 1 1.3311214840032395e+00 2.5999161190571307e-01 8.6873848348010405e+00 1 0 0
2146 1 3.8051062056363709e+00 2.6193448460767215e+00 4.0690984958215148e-01 0 1 1
3339 1 3.5472186018730514e+00 1.0967188684619058e+00 5.8249222318991578e-01 0 1 0
358 1 4.3782302878728424e-01 1.1647186843431281e+00 4.6796872206940243e+00 0 1 0
3591 1 5.3396499847824304e+00 5.4245941121054031e+00 5.1795200277239859e+00 0 1 0
1321 1 3.1360519525214610e+00 1.8419784077622543e+00 5.3041048732202736e+00 0 1 0
2319 1 4.7650850259768260e+00 1.1204508753588089e+00 2.2844948413620934e+00 0 1 0
2222 1 2.5696805174282095e-01 9.8504280910933634e-03 5.7570525113933986e+00 0 1 1
2816 1 1.5221247986773849e+00 1.0487538136853380e+00 9.4191376309233394e+00 1 0 0
1306 1 3.0356612965451282e+00 2.2076738798589428e+00 8.0257413070939805e+00 0 1 0
3545 1 2.3833090018017242e+00 1.0240687892964917e+00 2.4499534767007400e+00 0 1 0
1226 1 4.2982148768715378e+00 3.1014764530598420e+00 1.2412546322682816e+00 0 1 0
168 1 2.0293000315826970e+00 3.6134246161522552e+00 5.8011245425939038e+00 0 0 0
828 1 1.2987699450018504e+00 3.4149961054042128e+00 2.1723927951734971e+00 0 0 1
3111 1 2.2747649403601851e+00 2.7536290418820957e+00 8.1438031785730458e-01 1 0 1
1166 1 2.8617324113978366e+00 3.1466588271129834e+00 6.3119840364213289e+00 0 0 0
183 1 4.1111297921468982e-02 3.0911448413305758e+00 1.5393032154057120e+00 0 0 0
163 1 2.5256000008221449e+00 1.8510192277382553e+00 9.9522535855107819e+00 0 0 0
3739 1 5.1494189114646050e-01 3.0021716427002216e+00 7.9178002851954190e+00 1 0 0
1982 1 1.1467442312356442e+00 7.3741458748269240e-01 6.1665737047641578e-01 0 1 1
1470 1 4.0863993119943292e+00 2.5037516846422272e+00 8.9278236230981136e+00 0 1 0
193 1 7.6034380448133054e-01 1.3812151913303459e+00 6.5343025165515654e+00 0 0 0
2307 1 2.3007924122299706e+00 4.6968328503502516e-01 9.8424261969004601e+00 1 0 0
520 1 3.4381000802201207e+00 1.5159692766536781e+00 9.0928483225664340e+00 0 0 0
7 1 5.8585603860966424e+00 5.5685197074029773e+00 1.5920798957113482e+00 0 0 0
1547 1 5.3013101525900108e+00 5.3756187718780462e+00 9.8765253494513914e+00 0 0 0
1256 1 3.7372693516931172e+00 3.7854468420967033e+00 7.4274974704004713e+00 0 1 0
2516 1 5.7222555978807526e+00 3.9246615276515668e+00 7.2675451874380501e+00 0 0 0
2309 1 1.4796512643713056e+00 2.5702826675791646e+00 1.7427823915087464e+00 1 0 0
3583 1 5.5549875084631708e+00 1.0485239423575934e+00 1.7394689474984286e+00 0 1 0
2404 1 1.1336285577380620e+00 3.4783636862897009e+00 3.1297544765544867e+00 1 0 0
2408 1 5.4902079267598829e+00 2.8408863446351251e+00 1.4146747403190620e+00 1 0 0
3422 1 2.8438906843568890e+00 2.7015816455193264e+00 3.5695406541456558e+00 1 1 0
2483 1 4.9276757463280694e+00 1.2526990422699082e+00 1.0096406943385739e+01 0 1 0
59 1 5.7434639175620372e+00 9.7678204074522279e-01 3.1450719424216502e+00 0 1 0
3481 1 6.7017887154919031e-01 3.2135363809800364e+00 8.9088040091334975e+00 1 1 0
243 1 3.6124350172259312e-01 2.2459711622484870e+00 8.6198916872011466e+00 0 0 0
302 1 6.1088710894573861e-01 3.8323355845150617e+00 1.0159629226395989e+01 0 0 0
1307 1 3.0225263647061498e+00 1.1063805356635441e+00 1.6413282137487695e+00 0 1 0
255 1 3.6907712756744453e+00 1.3863536784627903e+00 4.3892007929796248e+00 0 1 0
3457 1 3.2409400381039668e+00 4.4419559856206821e+00 1.8946520441464698e+00 1 1 0
3536 1 1.5751990464440069e+00 1.1390932730649606e+00 3.2848425539899071e+00 1 1 0
4364 1 4.3956085427495584e+00 3.6118164532677191e+00 3.0031043019643548e+00 0 1 1
1337 1 3.1974501292938635e+00 3.7281607526930469e+00 1.0012204238166037e+01 0 1 0
338 1 3.7126165286834811e+00 5.1250531822353285e+00 9.2147060454398328e+00 0 0 0
3615 1 2.4302192552828044e+00 4.6034749599222060e+00 5.3865071410984857e+00 1 1 0
3663 1 8.1138789030664482e-01 4.7614347987535153e+00 9.5957784346041954e+00 0 0 0
266 1 2.9926606447049431e+00 5.0608413647046939e+00 9.8762014916006944e+00 0 0 0
2426 1 4.7642275007449202e+00 3.1734458679241841e+00 8.3628471094189010e+00 1 0 0
2749 1 1.6765991722102520e+00 3.2182719030570981e+00 7.8256799512614625e+00 1 1 0
1167 1 5.8576450512363358e+00 1.6794653794034180e+00 1.0421321991342849e+01 0 1 0
3792 1 3.8221314333169145e+00 4.2183081530873228e+00 9.4141013215677969e+00 0 1 0
222 1 3.9583349916573640e+00 1.0396386625088914e+00 1.5105244921790648e+00 0 1 0
3486 1 3.1008756746503332e+00 5.0397700013908411e+00 3.7478867534873119e+00 0 1 0
2250 1 2.6139392073289023e+00 5.1944513537055093e+00 4.6011541156380522e+00 1 0 0
2727 1 7.1247688238277995e-01 5.9124132223253778e-01 8.0730455432632713e+00 0 0 0
1141 1 3.8460686710800371e+00 5.2888565450933047e+00 1.0025580887685532e+00 0 0 0
226 1 2.3211475759309090e+00 1.3618248333769281e-01 4.7259138672221379e+00 0 1 0
2141 1 5.6131210260171533e+00 4.6638620927371450e+00 4.5280250894025844e+00 0 1 1
3774 1 4.6748576567771494e+00 3.7882227833903542e-01 7.0834080026492163e+00 1 1 0
2382 1 4.0063168631169992e+00 2.9561984452084400e-01 5.0343395743723969e+00 1 1 0
1118 1 5.7923999011382916e+00 2.7519995047969226e+00 2.3754640596161267e+00 -1 0 1
69 1 3.3302893243427439e-01 2.2812598178043997e+00 5.8424818935120619e+00 0 0 0
2443 1 5.4149691134962623e+00 1.4670978599895248e+00 2.9184969108071135e-01 0 0 0
916 1 5.8110076157356056e+00 1.9421501437019957e+00 1.0234889345168914e+00 0 0 1