LAMMPS data file via write_data, version 17 Nov 2016, timestep = 40000

4761 atoms
1 atom types

0.0000000000000000e+00 1.3447169879748136e+01 xlo xhi
0.0000000000000000e+00 1.4262877514606096e+01 ylo yhi
0.0000000000000000e+00 2.6894339759496265e+01 zlo zhi

Masses

1 1

Atoms # atomic

464 1 4.2446543363000098e+00 1.9474189174702214e+00 7.0383675943754183e+00 0 0 0
1277 1 2.6173845365728567e+00 1.8403145448950304e+00 1.1297813729467068e+00 0 1 0
2365 1 6.7838402575066337e-01 2.0895024028985274e+00 4.3693428371494454e+00 0 1 1
1305 1 4.1719840752137509e+00 2.3543975943339510e+00 2.3986566647626213e+00 0 1 0
1133 1 5.1662104376733211e+00 7.1286660047553090e+00 3.6400359987862854e+00 0 0 1
2618 1 5.7777294035029989e+00 7.0730185287409570e+00 6.4166165299540034e-01 0 0 0
3489 1 1.0725996520841852e+00 4.2468810415056071e+00 1.8411942493421589e+00 1 0 1
3927 1 6.3427727882919438e+00 1.7577713309996470e+00 4.4878829179999880e+00 0 0 0
2574 1 2.2148013197836405e+00 6.9499994405624461e+00 3.3082666982066380e+00 1 0 0
373 1 3.1769395441770500e+00 6.4916788915270542e+00 2.9590352370359274e+00 0 0 0
3628 1 5.5910191561159124e+00 4.5855358625079408e+00 1.3827557515656679e+00 0 1 0
375 1 3.7569405327652032e+00 1.8427505366314864e-01 5.8690081426447742e+00 0 0 0
653 1 1.4020946797458480e+00 4.0314697827680153e+00 8.0433582808800939e+00 0 0 0
394 1 2.7502646872230789e+00 3.7421117061471190e+00 6.0919254034469903e+00 0 0 0
2319 1 6.5878005889411879e+00 4.1920056696561753e-01 1.9654109202660353e+00 0 1 1
205 1 1.3092971272384122e+00 7.6369379554995787e-01 5.5104315972118574e+00 0 0 0
353 1 4.1108409182433858e+00 7.0865669747544811e+00 5.8642041899085067e+00 0 0 0
1376 1 1.8282928781541601e+00 4.8149837894242853e-01 5.2259085293439222e-01 0 1 0
193 1 3.1756131055553367e+00 5.8521590775905636e+00 6.5837569235027225e+00 0 0 0
2403 1 5.6397878796430012e+00 3.9251821831069935e+00 2.3141951880511842e+00 0 0 0
1368 1 3.2381879790955130e+00 2.2240718135778922e-01 1.4986410205768544e-01 1 1 0
36 1 5.4749613646718398e+00 1.2433886273635715e+00 4.5601785146276708e+00 0 0 0
323 1 2.5011534290085540e+00 6.6840932170770984e+00 5.9198054182968498e+00 0 0 0
396 1 5.0708581010933180e+00 3.7114145066343660e+00 6.1510721778840134e+00 0 0 0
3460 1 6.9705989750895647e-01 2.1458902764356327e+00 3.0432117501287304e-01 1 0 1
228 1 5.8549690704807489e+00 5.2493936372878860e+00 6.6200048116212269e+00 0 0 0
194 1 4.2944481451615619e+00 8.8595312788397496e-01 5.3191019908725465e+00 0 0 0
1509 1 1.5136297912515126e+00 3.1515621908999756e+00 3.2563660019233636e+00 0 1 0
1130 1 5.4010706506979229e+00 2.5956808724774270e+00 2.4393019769329953e+00 0 0 1
1293 1 3.4587222594121525e+00 5.4748319640434593e+00 2.7728982415761081e+00 0 0 0
1582 1 5.6890114861544863e+00 7.4678440319183992e-01 7.8939509072817131e+00 0 0 0
32 1 2.9335671911213899e+00 3.9171056305657883e+00 3.0240981381100771e+00 0 0 0
420 1 4.6044298244149360e+00 2.5077768222546832e+00 7.9372766750265358e+00 0 0 0
184 1 6.6890982014348177e+00 5.1310495399978846e+00 7.1266733078691011e+00 0 0 0
3563 1 3.4297628752017482e+00 3.5341489078480643e+00 8.6282052653837726e-01 1 0 1
1860 1 2.4489794709677679e+00 5.5136453513758044e+00 7.6764308575177678e+00 0 0 0
83 1 2.4790465358109843e+00 6.9049833167310144e+00 2.2536468527308511e+00 0 0 0
374 1 4.6424937150161796e+00 3.1731977897479258e+00 7.0032611480141549e+00 0 0 0
335 1 6.4384417971152290e+00 1.2533260832232755e+00 7.3978601611980430e+00 0 0 0
2631 1 7.1075489624232790e-01 2.9534244325686831e+00 3.8500160754690831e+00 1 0 0
92 1 4.1442583800274271e+00 3.6658599971343868e+00 4.8289914497886670e+00 0 0 0
1445 1 4.7112154529251343e-01 5.1756164545755592e+00 6.3216577698288212e+00 0 0 0
1530 1 1.8561595517234692e+00 6.1839112867857715e-01 6.3090073228456713e+00 1 0 0
316 1 4.3162886489340195e+00 4.3118962020138776e+00 7.4363761904396091e+00 0 0 0
2448 1 2.9295046518547521e+00 2.1191930468359024e+00 2.5184654689662551e+00 1 0 0
2913 1 3.2580540466740997e+00 3.1838217358248961e+00 5.4046507241762685e+00 1 0 0
1418 1 6.7522833786410719e-01 6.3626665212436970e+00 4.4834509297483605e+00 0 0 0
2711 1 5.0116716628654645e+00 5.5036788595120791e+00 7.9862193065861877e+00 0 0 0
172 1 4.1463377287942238e-01 5.2860484703077075e+00 8.1398822465791776e-01 1 0 0
1162 1 2.4862012108508544e+00 3.5839951047816037e+00 6.9845582729661426e-01 0 0 1
3421 1 3.3666691769909058e+00 6.2697248921036728e+00 1.1928744924001243e-01 0 0 1
207 1 2.7852224959410101e+00 6.4220046134854547e+00 1.0175090830180076e+00 0 0 0
3456 1 4.6330644714799893e+00 4.5098632817421977e+00 5.9483885211524257e-01 0 0 1
273 1 3.1982996335245746e+00 4.8179339481812494e-01 6.9545664996050780e+00 0 0 0
2567 1 2.8486928466586453e-01 6.0860412882989916e+00 8.2956083723819845e+00 1 0 0
3498 1 1.6514113068567293e+00 6.2120044437725364e+00 2.2446875505821300e+00 0 0 1
3790 1 2.1944434537781707e+00 4.5031805541028955e+00 8.0062097693021403e+00 0 1 0
405 1 1.7806318166095676e+00 7.1300433219845418e+00 6.7148708339784084e+00 0 0 0
128 1 2.2158883389585347e+00 1.0998894377295718e-01 1.5870622684991511e+00 0 0 0
2597 1 9.5533519252522159e-01 6.8752985142461283e+00 5.4310078547776746e+00 1 0 0
3453 1 5.6563357987466221e+00 5.2942485114543807e+00 3.6727489717618784e+00 0 0 1
2548 1 5.5295740665519877e-01 1.4165518291977477e+00 5.2753182024995855e+00 1 0 0
2531 1 6.5081615536579704e+00 2.7382390143437432e+00 3.9134683560308035e+00 0 0 0
2324 1 2.6757149215672924e+00 1.1774184839914359e+00 2.4711372446994084e+00 0 1 1
272 1 1.3554032214981873e+00 6.4625061095204943e+00 7.3642917562539143e+00 0 -1 0
154 1 1.5754757723699628e+00 7.0191216128845841e+00 5.4744810933367594e-01 0 0 0
1142 1 5.8616737129302265e+00 2.8190133332917751e+00 1.3288072019269530e+00 0 0 1
271 1 2.9620267458298994e+00 9.5336241653644760e-01 6.0017082869540825e+00 0 0 0
214 1 5.0116372617714759e+00 5.0970285405633211e+00 2.9297775108646813e+00 0 0 0
70 1 3.4322060401885732e+00 2.8144914041517026e+00 3.0945111276614061e+00 0 0 0
477 1 5.7742115555933422e+00 4.1868480929991332e+00 8.4654134282497697e+00 0 0 0
13 1 1.7019262865572971e+00 1.3860583068550434e+00 2.9606730690795287e+00 0 0 0
3768 1 4.5132704293809395e-01 4.2647616522555891e+00 8.6413186753753966e+00 1 0 0
158 1 2.1207011186976517e+00 2.2559868769858089e+00 3.1604831015643562e+00 0 0 0
269 1 4.3790925733387800e+00 1.7458623676852751e+00 8.7716690270356814e+00 0 0 0
2829 1 5.4418665277260247e+00 3.2480340269979662e+00 7.9713567879533347e+00 1 0 0
1275 1 1.9267601477688863e+00 6.1577481434963524e+00 2.9827986213128727e-01 0 0 0
2783 1 2.5984848821849091e+00 3.1668554991559836e+00 3.5954978338616330e+00 1 0 0
1235 1 6.4520019569467175e+00 1.5359765429098067e+00 1.1345270281370332e+00 0 1 0
218 1 9.8659920640796406e-01 5.2804552244999394e+00 8.4212735816850888e+00 0 0 0
1329 1 4.2874270763071953e+00 1.3818104286582229e+00 1.4991220271236465e+00 0 1 0
1896 1 1.8680226372108808e+00 4.3014680339372013e+00 5.0925711505266031e+00 0 0 0
284 1 3.6914742680567678e+00 1.5832800120970654e+00 7.7661948905703779e+00 0 0 0
3618 1 4.0512954579011957e+00 2.8535061365993650e+00 5.2322866132008872e-01 1 1 0
231 1 4.2048738376709345e+00 3.9362449840231402e+00 1.2673102430497210e+00 0 0 0
2707 1 1.7670525010195018e-01 6.8752455606379757e+00 8.9365162263703866e+00 1 0 0
3278 1 1.5223271576595271e-01 2.0394942107547736e+00 3.0257897401133746e+00 1 0 1
514 1 5.8696988326924311e+00 5.0059692892210297e+00 7.8085498584606006e+00 0 0 0
275 1 6.5246683959840066e+00 4.0368245719703824e+00 7.4638882869682854e+00 0 0 0
1604 1 4.1983233937914042e+00 4.4659558221341671e+00 5.6120596779988956e+00 0 0 0
137 1 3.8113723992490360e+00 4.9485832632420017e+00 1.9846719108190951e+00 0 0 0
52 1 5.6855224972676410e+00 6.7330580130592779e+00 4.7205290969339888e+00 0 0 0
2165 1 1.0742462362717515e+00 6.1005488442964477e+00 1.0420759272133029e+00 0 0 1
94 1 5.6514382532550664e+00 3.2347864716590302e+00 3.2675229804915285e+00 0 0 0
2301 1 4.5254686047152317e+00 2.6193819427682588e+00 1.3655909469909628e+00 0 1 1
1440 1 2.3286651137233818e+00 3.2676428531097930e+00 4.8647507595142452e+00 0 1 0
2281 1 4.3640393497970792e-01 4.4622019630028849e+00 2.0529724922260595e-01 0 0 1
829 1 4.4531486684494874e+00 3.1022181843263117e+00 5.5774111291950792e+00 0 0 1
63 1 4.5661613878660381e+00 1.9789573912946006e+00 4.3081046405914813e+00 0 0 0
253 1 4.4193266393488200e+00 3.4221611437453077e+00 8.1857672240798607e+00 0 0 0
2902 1 5.1224844602226192e+00 2.4385624984434831e+00 6.2735245917566171e+00 0 0 0
2739 1 6.3315877350137511e+00 3.3121553290880725e+00 8.3506340911072456e+00 0 0 0
3865 1 4.8328706309169283e+00 8.2180877466003921e-01 7.2203661076884917e-01 0 1 0
362 1 2.5658738686573668e+00 2.0984840768324886e-01 8.8367715311954740e+00 0 0 0
48 1 4.4436451932042109e+00 8.5896919019459916e-01 8.1767964369507258e+00 0 0 0
3811 1 3.1175693734866514e+00 6.0135159515831464e+00 1.9908464065215581e+00 0 1 0
1198 1 9.0731780699505238e-01 5.9558794626886122e+00 6.1313860318281115e-02 0 0 1
1289 1 6.5040330354562990e+00 6.7375667569076150e+00 8.4214720703112587e+00 0 0 0
2528 1 5.3664165507411719e+00 2.9667047253917023e+00 5.3486550689100287e+00 0 0 0
3707 1 4.7746159223860802e+00 4.5321345142734222e+00 6.5917555305007287e+00 1 1 0
2695 1 1.7155162664080139e+00 4.6231767682365152e+00 8.8769961744893653e+00 1 0 0
112 1 4.8707215148048988e+00 3.2475899537864938e+00 4.1575933555055684e+00 0 0 0
74 1 4.9451987335032861e+00 5.5690927427417458e+00 6.7772611468796233e+00 0 0 0
1115 1 4.7887141359721292e+00 5.1335524623720499e+00 1.3454042909065071e+00 0 0 1
185 1 4.4817264433678092e+00 5.8586746687722595e+00 2.1047250778510178e+00 0 0 0
1705 1 9.4176249266305045e-01 6.6191795579425472e-01 7.2356627930232840e+00 0 1 0
189 1 3.4481650156171528e+00 5.2243040000426477e+00 5.3811006558384076e+00 0 0 0
602 1 2.1393733491126645e+00 1.5125101819500875e+00 5.8573119230598296e+00 0 0 0
2595 1 6.4826998250082450e+00 6.0462598518123620e+00 3.4524011260064946e+00 0 0 0
341 1 5.6719591814756063e+00 6.7735598921753049e+00 5.7614409963859048e+00 0 0 0
1401 1 6.6697264314882467e+00 4.4754190462176940e-01 8.3361836186135747e+00 -1 1 0
1020 1 3.2395713971563462e+00 1.7985384993039073e+00 6.9189232570509818e+00 0 0 1
3924 1 2.5041892927008931e+00 3.8183098869261389e+00 7.1146347050341445e+00 1 1 0
358 1 4.9403286175331775e+00 6.8709061634382262e+00 7.5744604907974526e+00 0 0 0
3922 1 6.0178933590961678e+00 1.7069145040958535e+00 6.5003290533991160e+00 0 1 0
3612 1 4.3046053331126188e-01 3.0062025755709965e-01 4.3732625053470562e+00 1 1 0
7 1 3.6138966256644944e+00 1.1984706031225525e+00 6.9688144562581766e-01 0 0 0
3554 1 3.9261367323133061e+00 6.6087374576229152e+00 1.0302251017389636e+00 0 0 1
2750 1 6.6285926826008854e+00 5.0177490506442357e+00 2.9970189815813164e+00 0 0 0
3827 1 6.4633476220842179e-01 3.2189501947663195e+00 6.0759349140430938e+00 1 0 0
1471 1 4.0049845090123881e+00 6.7601678206857798e+00 4.8731626711642537e+00 0 0 0
143 1 2.2142046256061634e+00 1.0066313179876007e+00 7.2566237417110866e+00 0 0 0
1039 1 1.9317551675389695e+00 2.2385474442953028e+00 1.8553929216837868e+00 0 0 1
2797 1 1.6529894034934618e+00 6.4759755520338498e+00 8.3037393268633721e+00 1 0 0
2632 1 1.6166187786919144e+00 1.9473679369310974e+00 5.0343449557559925e+00 1 0 0
1502 1 4.1664894628414784e+00 5.5483501910724078e+00 6.0706475033335856e+00 0 0 0
3953 1 5.0886121023986153e-01 3.9731591732427631e+00 3.7600369262886981e+00 1 1 0
3354 1 5.7972059588399683e+00 2.1324898490847444e+00 1.1120356057563102e-01 0 0 1
3952 1 3.2313645800690978e+00 6.2642301113424601e+00 7.5434706072818525e+00 1 1 0
204 1 6.0697364224623316e+00 7.0697623054573793e+00 2.8817993732875520e+00 0 0 0
1340 1 5.2633017064316577e-02 6.0534816849616813e-01 4.5519230157592394e-01 0 1 0
142 1 4.8993714843955685e+00 1.3859287397889479e+00 6.1637375231550422e+00 0 0 0
2725 1 3.8503674690713514e+00 1.4973492703285318e+00 6.0022455197451361e+00 1 0 0
944 1 6.4244964383086742e+00 4.8807385770241085e+00 2.0492850418822357e+00 0 0 1
86 1 1.9487117472705002e+00 4.5723134176859404e+00 1.4659660307073272e+00 0 0 0
4728 1 1.7006592625931896e+00 4.3741834276277741e-01 2.4779644851860567e+00 1 1 1
1517 1 3.6402024889175251e+00 2.3846167337528663e+00 8.4616437658300736e+00 0 1 0
223 1 2.2774217419476859e+00 6.8065279898266597e+00 4.6734733818856649e+00 0 0 0
251 1 2.6804177122178299e+00 2.2612824830674869e+00 8.7839458707906299e+00 0 0 0
235 1 3.4889989573246369e+00 5.5467734186517896e+00 4.0138667866344324e+00 0 0 0
2792 1 3.6769709526771619e+00 2.7499941895230871e+00 7.5329732707723904e+00 1 0 0
157 1 5.8282288677171445e+00 6.8986483757391444e+00 6.7603719236943958e+00 0 0 0
1002 1 4.5754001782246849e+00 1.0373482600152855e+00 3.1418820500977511e+00 0 0 1
1607 1 2.4474034574144810e+00 3.0844202444124251e+00 2.5231685360917973e+00 0 0 0
326 1 4.9268248714668079e+00 2.2713429028216062e-02 6.1417984124941620e+00 0 0 0
1570 1 2.3083471560025681e+00 1.9328507845455298e+00 6.7588988025958656e+00 0 0 0
3747 1 3.9628041699203318e+00 1.9598451778313051e+00 3.4219472673578846e+00 0 1 0
3631 1 5.4755959897098911e+00 5.6762897958070262e+00 1.8237282901801335e+00 0 0 0
4670 1 9.7101246426354459e-01 1.0489448585653549e+00 3.8316356905688648e-01 1 1 1
1278 1 5.7414013533521837e+00 3.2974593975821622e+00 6.8057310697029409e+00 0 1 0
2593 1 1.3832441651629930e+00 3.6110448375791226e+00 4.3921514893765767e+00 1 0 0
2391 1 4.4283582875129266e+00 1.8457443281465065e+00 5.5276217348276735e-01 0 0 0
148 1 6.4381454182337441e+00 2.7210518523822111e+00 6.0045975206498872e+00 0 0 0
2495 1 7.5885408740675098e-01 2.4699723075659876e+00 1.4912450268247732e+00 1 0 0
1253 1 1.3703417544507893e-01 6.6584514024819992e+00 1.2202980705779309e+00 0 0 0
2422 1 1.3556511391597906e-01 2.4064451234350424e+00 7.0665397556297211e+00 1 0 0
3508 1 4.2287927216419536e+00 5.7400893541592994e+00 4.8228011591746220e+00 1 0 1
1167 1 1.1279496580309811e+00 1.4656451029204867e+00 2.0116279507137627e+00 0 0 1
152 1 4.2884130317556179e+00 6.0307093889176855e+00 3.1727837794967058e+00 0 0 0
90 1 5.2801864396532743e+00 8.1416646560444250e-01 5.4872939642192886e+00 0 0 0
285 1 4.5708979949424657e+00 3.3942230786236465e+00 2.1798026792560834e+00 0 0 0
3788 1 4.1877334960781704e-01 3.4891027819194913e+00 1.7289403381863484e+00 0 1 0
173 1 9.9993798624977770e-01 2.7855015052298864e+00 4.9800809733982794e+00 0 0 0
1736 1 4.6621470121790516e+00 2.7464014906580965e+00 3.2126044763868453e+00 0 1 0
1345 1 5.5947125515425788e-01 3.6380694880250535e+00 2.7180852018135107e+00 0 1 0
209 1 6.1432495826056304e+00 3.5708125458537232e+00 5.6164846094910894e+00 0 0 0
57 1 2.7167022283962372e+00 4.7708188948199703e+00 2.2888076053689317e+00 0 0 0
164 1 1.1397795580687839e+00 6.4562173205136664e-01 3.3088290726286140e+00 0 0 0
429 1 3.2233835832525553e+00 6.9300835846826168e+00 6.6219360787395258e+00 0 0 0
1438 1 2.7389665375358163e+00 1.8923201413776780e+00 7.8306535197346836e+00 0 1 0
3242 1 6.3556541796171633e+00 6.0838632363794387e-02 2.9548157460950315e+00 0 0 1
1239 1 7.2850873362086499e-01 6.6896002245552806e+00 2.0748651810033056e+00 0 0 0
3813 1 1.6126354984181817e+00 4.5334050854876491e+00 7.0185529082025413e+00 1 1 0
1369 1 5.7280317778710419e+00 4.2821682035637858e+00 3.4300057270189326e+00 0 1 0
1580 1 6.4009384052988860e+00 6.0614256083822600e+00 6.4051811382019137e+00 0 0 0
590 1 5.6636525076484601e+00 6.2818029036559642e+00 8.2385932270729771e+00 0 0 0
3754 1 2.2475123564234147e+00 6.4565670054178148e-01 3.5382457391911357e+00 1 1 0
322 1 1.9105728966664470e+00 4.3904269891860901e+00 3.9438253932400302e+00 0 0 0
3196 1 1.4676715166193972e+00 5.1877522656964210e+00 6.4866330618322710e-01 1 0 1
124 1 6.4440283761616328e+00 3.1213674676715750e+00 2.2890909476824239e+00 0 0 0
247 1 3.6824613641993866e+00 2.2647954309874048e+00 5.0563811026843339e+00 0 0 0
2832 1 1.3256728426394291e+00 6.2913767788867210e+00 6.1598229607423800e+00 1 0 0
2492 1 5.2691928780668684e+00 1.8776052866255877e+00 1.1814337365628742e+00 0 0 0
1476 1 3.5599346527153588e+00 5.6165851013400108e+00 1.1825723158467514e+00 0 0 0
3786 1 6.0994613274814018e+00 2.2504514889390981e+00 8.1165602572477109e+00 0 1 0
2400 1 5.0547287792548490e-01 7.8160327532202190e-01 2.4858939334404111e+00 1 0 0
2611 1 1.4523993927596988e+00 1.7879005296874273e+00 9.4314426318324096e-01 1 0 0
3035 1 1.6020974675334332e+00 3.4252041320019240e+00 5.6413397154147971e+00 1 0 0
3785 1 6.6627291181006729e+00 2.5225512894851545e+00 7.1720882871519365e+00 0 1 0
1628 1 1.0964963421465426e+00 1.3733831179862679e+00 8.5698116890835152e+00 0 1 0
149 1 1.4098101059148367e+00 3.7729580324285856e+00 9.1530482619456155e-01 0 0 0
202 1 2.1787847845981601e+00 2.5547697775103018e+00 5.3355731710718235e-01 0 0 0
3961 1 5.0869431120269892e+00 4.9855443259384886e+00 8.9106442560434154e+00 0 0 0
3393 1 1.8116105859976759e+00 6.7101379177457385e+00 1.4112971962139187e+00 1 0 1
203 1 2.5819284137546381e+00 1.2967924436257603e+00 8.7784742145188286e+00 0 0 0
3914 1 2.7984871961824735e+00 3.0302592471472827e+00 8.0937846433558533e+00 1 1 0
476 1 1.7754084208289074e+00 6.1365699165578906e+00 5.1737772462414382e+00 0 0 0
480 1 3.5023528719553969e+00 5.5698899322182021e+00 8.4194151333677425e+00 0 0 0
4735 1 4.7347187059924103e+00 7.0124577662646104e-01 4.1111647294557256e+00 0 1 1
492 1 5.3952017425567558e+00 4.2309914377582594e+00 7.3433029470107147e+00 0 0 0
3717 1 5.4300971565711977e+00 4.6587289168440531e+00 5.7954419724832871e+00 1 0 0
509 1 2.1246516681384202e+00 5.9418553374083993e+00 6.8760528492601543e+00 0 0 0
3549 1 6.3123753467509678e+00 3.9045158687256047e+00 1.4849434910437755e+00 0 0 1
3598 1 2.5385454998748735e-01 4.0981878808402494e-01 5.3069213675929543e+00 1 1 0
2500 1 6.0524309837702246e+00 1.6755256785555335e+00 2.0563419456761167e+00 0 0 0
2615 1 4.4346746655167890e-01 3.9307052287018975e+00 5.3286586920164645e+00 1 0 0
1661 1 5.8489814047566462e+00 3.4451095799555975e-01 8.8734455767422435e+00 0 1 0
427 1 4.5927150069544798e+00 6.4042894866585964e+00 4.2045246631577688e+00 0 0 0
1399 1 3.7997945328125828e+00 3.2913706700199591e-01 2.3770792853529690e+00 0 1 0
4106 1 3.4845132549186841e-01 6.7389466199675949e+00 7.4120473362443127e+00 1 0 0
2840 1 5.7563493353677000e+00 2.0925759861546744e-01 4.6705871767442462e+00 0 0 0
1303 1 2.0210563934447623e+00 1.1510012399864280e+00 1.6847460997110153e+00 0 1 0
2479 1 2.6810675410168033e-01 1.9083423253420786e+00 6.0569238000999066e+00 1 0 0
1856 1 4.1685568879753987e+00 6.2364936633832802e+00 7.0994830521649472e+00 0 0 0
2974 1 5.8052824655836774e+00 5.6635663556331228e-01 6.7072767871805024e+00 0 0 0
301 1 1.2143746177997854e+00 2.2425166767418152e+00 5.8561348056082805e+00 0 0 0
2602 1 2.4563256449894690e+00 3.8339548039131897e+00 1.7100968038959674e+00 1 0 0
442 1 6.3569253227607962e+00 9.4063094368316380e-01 5.1394992881857338e+00 0 0 0
402 1 5.9970670846810954e+00 5.4523917118703373e+00 8.8140155052476121e+00 0 0 0
1569 1 4.4988465776330688e+00 3.9263289329848287e-02 3.0253273145651960e+00 0 1 0
2621 1 1.1465056027942298e+00 4.8374647046569519e-01 1.2720964712640892e+00 1 0 0
232 1 3.8986693381343853e+00 2.5803786025378668e+00 6.2155810399488729e+00 0 0 0
1218 1 3.5223751530066365e+00 1.1733327611625946e+00 8.8136469615877946e+00 0 1 0
659 1 2.2402145586008380e+00 2.8054471740009519e+00 6.0829641353435067e+00 0 0 0
368 1 5.3796231583992951e+00 2.4691524197084296e+00 7.3248159234089298e+00 0 0 0
3403 1 5.0426782980050104e+00 6.1443785385855350e+00 8.5480504678917257e-01 0 0 1
118 1 1.3585109688774977e+00 9.5496152602946649e-01 4.2638041333958281e+00 0 0 0
1082 1 1.0009077632402630e+00 4.9199977938179451e+00 3.4663349640044148e+00 1 0 1
4102 1 3.6147783002666207e+00 6.3703228220990782e-01 3.3854880672956607e+00 1 1 0
389 1 5.2074622491394775e+00 1.7105650008120796e+00 8.1493505237886286e+00 0 0 0
1258 1 5.3652200850304306e+00 6.1927082594006757e+00 3.1763796675748850e+00 0 0 0
418 1 6.7686139142226143e-01 5.8632076765142731e+00 5.4053723701871448e+00 0 0 0
419 1 5.7947853339193980e+00 4.6769144338957194e+00 4.5376588805661031e+00 0 0 0
1429 1 1.6597477822938640e+00 3.4727129112870370e+00 6.6633001530175227e+00 0 1 0
2370 1 1.4917885714993113e+00 6.5677106157878278e+00 3.9816582149051318e+00 0 0 1
2572 1 2.7526353299147872e+00 2.8320147288778399e+00 1.4173758796061537e+00 1 0 0
190 1 3.6562233153408847e+00 4.8521687863375051e+00 4.3849237764693155e-01 0 0 0
3642 1 1.0269761504868387e+00 2.5160070263397589e+00 2.5833541401306772e+00 1 1 0
474 1 4.2150081557387651e+00 7.0897957984836708e+00 3.1588868820624962e+00 0 0 0
2849 1 1.7662390866321300e+00 3.1592555177418218e+00 8.5167202676665408e+00 1 0 0
1395 1 6.1171561247433166e+00 6.1442109911964868e+00 2.4335631193488796e+00 0 0 0
252 1 3.1123840025004905e+00 4.7715980660416344e+00 7.5988051699585011e+00 0 0 0
110 1 5.5626941961884953e-02 1.3332210619769995e+00 4.2564683664189715e+00 0 0 0
1413 1 1.4709546054728029e+00 5.3814790367579635e+00 6.4132792694393528e+00 0 0 0
1175 1 5.6519430962982851e+00 8.5201974234332567e-01 2.6437366402391160e+00 0 0 1
1358 1 2.6035715797881780e+00 5.3406151735327629e+00 7.3865358766423694e-01 0 1 0
563 1 3.4565611578058242e+00 6.5872439399799143e+00 4.0311832743857838e+00 0 0 0
201 1 3.1459833190192006e+00 4.4850684767375473e+00 1.3498433679678641e+00 0 0 0
261 1 4.8847370901068388e+00 3.9944875095554457e+00 3.0768890500962134e+00 0 0 0
1108 1 6.2783261837231432e+00 4.7056698442136016e-02 2.7998179230259429e-01 0 0 1
288 1 5.9109709717574832e+00 3.6146184627770745e+00 4.3295207048801849e+00 0 0 0
262 1 2.5869009411431256e+00 2.2862946689434875e+00 5.0711004740748358e+00 0 0 0
2454 1 3.0070907199047023e+00 3.9136357765042922e+00 4.1993773778531995e+00 1 0 0
1719 1 4.6055309718272985e+00 1.9898198863304573e+00 5.4524839624276122e+00 0 0 0
3738 1 1.6963856060012600e-01 4.9716003110162408e+00 5.3814135108997911e+00 1 1 0
266 1 1.1360267734069078e+00 1.9568287593544731e+00 3.5365013797525942e+00 0 0 0
2580 1 2.3163368804891888e+00 1.4667543577076734e+00 4.1896731931786233e+00 1 0 0
1414 1 2.2607246165629995e+00 8.9700738362770993e-01 5.0314181760326377e+00 0 1 0
2101 1 5.8523608039759036e+00 6.7670326023557150e+00 1.6741736679783814e+00 0 0 1
1520 1 3.9448757448650524e+00 1.9968418983275094e-01 8.7152478912007254e+00 0 1 0
355 1 3.3065988158790094e+00 1.3590789125069518e+00 5.2184411439331528e+00 0 0 0
135 1 3.9329835280375134e+00 6.7533089000011692e+00 2.1718780816919594e+00 0 0 0
1837 1 1.8130156771238271e+00 2.0540237608149701e+00 8.2546432555802038e+00 0 1 0
313 1 4.8503129739153819e+00 4.9267379771790623e+00 5.0273562664439888e+00 0 0 0
3629 1 5.4636072055581559e+00 2.5309978209794387e-01 3.4501725418628855e+00 1 1 0
259 1 4.0264762188838548e+00 3.7369163970972505e+00 3.6376750376267299e+00 0 0 0
3866 1 9.3679836610065836e-01 3.0012906147254705e+00 6.5967034203148200e-01 1 1 0
1500 1 4.8013307090243380e+00 6.4687059945426046e+00 5.3844870178105237e+00 0 0 0
1527 1 6.7018546079059282e+00 5.6307780398920118e+00 8.0466453560371356e+00 0 0 0
3568 1 2.7336425090503003e+00 1.2044882871300405e-01 2.6326994979469500e+00 1 0 1
4247 1 4.1408753074923652e+00 4.6630707319784905e+00 8.3505608061417700e+00 1 0 0
2368 1 6.3988356537657705e+00 3.4476368895828990e+00 5.9736700887359617e-01 0 1 1
122 1 5.5060953276349620e+00 5.3363372521652339e+00 4.0115036093620410e-01 0 0 0
216 1 1.5962892515717799e+00 5.8350536083849462e+00 3.2250839664777504e+00 0 0 0
3684 1 5.6014796753577576e+00 2.5188960675656520e+00 4.2852038396286227e+00 1 1 0
1404 1 6.3887370701652024e+00 4.5873927267530590e+00 5.3136051236124304e+00 0 1 0
2127 1 3.1961941454586489e+00 1.1202855378273164e+00 1.7015881949562859e+00 0 0 1
2547 1 5.0924852975281540e+00 2.8147721423139966e+00 4.7667135646477510e-01 0 0 0
15 1 3.5629611203967109e+00 4.5145334754786454e-01 4.7332572601356215e+00 0 0 0
1298 1 5.9562294166977487e+00 9.4458853005400201e-01 3.9250781551750630e-01 0 1 0
4747 1 6.1832438690613900e+00 4.4540802115396083e+00 3.5327613438710026e-01 0 0 1
1336 1 6.6298693529004646e+00 4.0479342110288368e+00 2.6957289304012444e+00 0 0 0
3647 1 3.6694490653358121e+00 1.3933140442794032e+00 2.5322019113775358e+00 1 1 0
1087 1 6.5877391927402327e+00 2.4683941300168297e+00 6.9172954102466844e-01 0 0 1
530 1 2.5490601958926606e+00 5.0501891387151243e+00 3.4848155242610490e+00 0 0 0
182 1 9.3637569997647896e-01 4.3097116970944720e+00 6.0657688393489027e+00 0 0 0
608 1 4.0407772938047639e+00 5.2914020138848015e+00 7.4140131435610250e+00 0 0 0
2667 1 5.2597854687094019e+00 3.9029951641027036e+00 5.0834695665022238e+00 0 0 0
2731 1 2.9856826899572630e+00 6.0390937088321603e+00 4.8163162276415363e+00 1 0 0
1472 1 6.0806751539548456e+00 5.6596085579810858e+00 5.4000318962795815e+00 0 0 0
260 1 1.4733376927853226e+00 5.4583503222054199e+00 7.4628293730290629e+00 0 0 0
3481 1 3.5716704134647657e+00 3.2053600902218822e+00 1.9446956704639358e+00 0 0 1
377 1 1.0808045678837281e+00 2.4171390289713917e+00 8.9131416034518587e+00 1 0 0
2253 1 4.3721846744759674e+00 5.6087511600415239e+00 3.7368100340315241e-01 0 0 1
3840 1 1.6130635446624866e+00 4.9796330810821585e+00 2.6889231096545250e+00 0 1 0
4193 1 2.7321931997842515e+00 6.4260908092192741e+00 8.4079466387637591e+00 1 0 0
3766 1 2.5984004967457843e+00 5.0835949507993510e+00 4.5812782518746413e+00 1 0 0
4499 1 5.3486928883744440e+00 3.8584779290668023e+00 2.2562544084953418e-01 0 1 1
2379 1 4.7810225588307214e+00 7.0453752006566894e+00 1.4166098952863357e+00 0 0 1
2844 1 3.2422630743440206e+00 4.3698584617976506e+00 8.5637393292004926e+00 1 0 0
4435 1 4.7181422140792089e+00 6.7347086659978872e-01 2.1125415376638164e+00 0 1 1
1549 1 2.2913108544425511e+00 5.9859805255632415e+00 4.0239870233949544e+00 0 0 0
4134 1 4.2625993725869247e+00 6.2371048954345092e+00 8.1186606883444714e+00 0 0 0
314 1 3.4689997433191149e+00 6.3300910030229032e+00 5.7229985956283862e+00 0 0 0
168 1 6.6990149980148788e+00 4.5571943521484508e+00 8.3122795103315319e+00 0 0 0
321 1 3.8307538709327766e+00 3.6773374203466282e+00 6.2641448832476749e+00 0 0 0
2417 1 3.8457430941243311e+00 4.0334836473846556e+00 2.6405290661435621e+00 1 0 0
187 1 5.4376189394566188e-01 6.1310973077937936e+00 3.4902623898043461e+00 0 0 0
219 1 3.6897748031446955e+00 1.3974780042138129e+00 4.2026725026426242e+00 0 0 0
3419 1 3.2484189705733177e+00 2.2404295174009166e+00 4.1397457579054425e-01 1 0 1
2202 1 6.2951166667417127e+00 2.7786656707032074e+00 4.9440929440962158e+00 0 1 1
1322 1 1.9433594876102380e+00 3.9548973390361701e+00 2.6860193202721097e+00 0 1 0
3748 1 1.3004022464009548e+00 5.2436327729538057e+00 1.6951380984244306e+00 1 0 0
3893 1 9.4567937385328471e-01 4.5137241013712313e+00 4.6185928699890910e+00 1 1 0
62 1 1.4697573156579049e+00 3.1927266344192646e+00 1.8995276003207591e+00 0 0 0
2581 1 4.7112306480722745e+00 5.3838605380638977e+00 4.0504790427792834e+00 1 0 0
3755 1 3.7746040207893188e+00 2.9381864388622434e+00 4.1050358158273523e+00 1 1 0
2614 1 5.5614013822506037e-01 3.1829015047796507e+00 8.3871238846557752e+00 1 0 0
23 1 2.9984659951909070e+00 4.2296557143193212e+00 5.2147687737397259e+00 0 0 0
2395 1 5.5208200580291056e+00 5.6676699632439780e+00 4.5832864568917104e+00 1 0 0
2549 1 5.0811957395517815e-01 5.3695564542935541e+00 4.2834606400180322e+00 1 0 0
2677 1 1.3601109176886330e+00 5.0904590155496701e+00 5.4426951745729655e+00 1 0 0
1363 1 5.6299492422251447e+00 9.1344043426661725e-01 1.3733323759037712e+00 0 1 0
334 1 3.5124155220956568e+00 4.8988429319382316e+00 6.5001384686840540e+00 0 0 0
3960 1 1.3243213826412061e+00 2.3572672540361976e+00 6.8451032335249069e+00 1 0 0
3447 1 4.6793668366271479e+00 4.5006272160834850e+00 2.2017720916500192e+00 1 0 1
366 1 1.2590507658243980e-01 6.3044996936191264e+00 6.4092157669585239e+00 0 0 0
167 1 5.8459348927084986e-01 5.0145188465939228e-01 6.2615547511563028e+00 1 0 0
147 1 9.9196816894819495e-01 6.8725039787863480e+00 3.0197636063371909e+00 0 0 0
2334 1 3.0047018018542100e+00 2.2332099568890014e+00 4.0102967895451584e+00 0 1 1
2257 1 1.8118126104105654e+00 2.6158944376688926e+00 4.2358002121550573e+00 0 1 1
3409 1 3.7781868265037470e+00 4.7610037629256832e+00 4.5401668984963184e+00 0 0 1
2569 1 4.3208552089826524e-01 1.7858567809280395e+00 7.9523050874216219e+00 1 0 0
315 1 5.2265755327349215e+00 5.6845240430181319e+00 5.7874104417893744e+00 0 0 0
66 1 3.8761501329562078e+00 2.2161676055257493e-01 1.3800974014597212e+00 0 0 0
1470 1 5.6630689318090921e+00 1.9698840058076090e+00 5.3770086541037223e+00 0 1 0
11 1 4.9898153710528215e+00 1.6433111142830037e+00 2.2369056272604180e+00 0 0 0
317 1 4.2196857659889275e+00 8.1702041170952222e-01 6.7326111704977274e+00 0 0 0
1492 1 5.9681849883910854e+00 6.0235745697276322e+00 7.3566951850899631e+00 0 1 0
227 1 6.1057538059317062e+00 1.9902227259838872e+00 3.0992457692600244e+00 0 0 0
3836 1 3.4324991674401479e+00 3.7985002076554291e+00 7.5009231662499749e+00 0 1 0
2619 1 2.5593602282509287e+00 4.7899785448478882e+00 6.6975339113739212e+00 0 0 0
1772 1 1.5317416484171338e+00 5.4711573733300662e+00 4.4079206016016901e+00 0 0 0
305 1 6.8542819426039614e-01 4.7741414088198262e+00 7.3978628178922481e+00 0 0 0
3757 1 2.9650853029482915e+00 6.5322026570456759e-01 7.9382651872792840e+00 1 1 0
1596 1 5.2417295903923558e+00 1.4145315097768765e+00 7.1416270406735851e+00 0 1 0
3838 1 2.9711314302362344e+00 1.4636685557302322e+00 3.4086468118921252e+00 0 1 0
2550 1 2.1830153146065321e+00 2.8490259309182147e+00 7.3877133615384487e+00 1 0 0
246 1 5.6277933653650725e-01 4.7605399607069145e+00 2.6204440614801854e+00 0 0 0
332 1 1.1542314888635703e+00 1.3831289083614591e+00 6.4799784265498470e+00 1 0 0
254 1 1.8722075014492978e+00 7.5273605566569490e-01 8.2602993647401455e+00 0 0 0
1034 1 3.6219876761503254e+00 2.1489671810526989e+00 1.5310793398431723e+00 0 0 1
1499 1 2.4807519507445770e+00 5.7502089691496927e+00 2.7942310392051972e+00 0 0 0
2104 1 4.0139280094263446e-01 3.5503631697502831e+00 7.1403908247771239e+00 0 0 1