LAMMPS data file via write_data, version 17 Nov 2016, timestep = 40000

5655 atoms
1 atom types

0.0000000000000000e+00 1.4558565019215520e+01 xlo xhi
0.0000000000000000e+00 1.4558565019215520e+01 ylo yhi
0.0000000000000000e+00 3.2352366709367821e+01 zlo zhi

Masses

1 1

Atoms # atomic

3017 1 2.8151158222745947e+00 1.0408229334599757e+00 3.0459171529523057e+00 1 0 0
4626 1 4.8283867000889575e+00 1.7075927078169399e+00 6.3038443993325535e+00 0 1 0
5484 1 3.0391028383167336e+00 5.8114741417525515e+00 9.1724784061049086e-02 1 1 1
3093 1 3.9037643612605479e+00 3.9682574993242575e-01 2.4917597898961688e-01 0 0 0
152 1 1.2155303384794358e+00 4.7910350878808803e+00 2.1988595664122794e+00 0 0 0
3350 1 4.5565789549009494e+00 2.9402305691071353e+00 5.4266770770314006e+00 0 0 0
2788 1 4.0685391862784845e+00 9.4334959311660105e-01 6.0316213787393584e+00 0 0 1
1453 1 3.8014297343331598e+00 5.2434408868315368e+00 5.4893340412299518e-01 0 0 0
381 1 3.6487900079085529e+00 8.8085938922265394e-01 7.8786667544285516e+00 0 0 0
223 1 2.4920168251956132e+00 4.4892410345452829e+00 8.3517052505824800e+00 0 0 0
4733 1 1.8200112991058293e-01 6.8757342765016078e+00 1.0249684514202187e+01 1 0 0
3000 1 8.9249282042231926e-01 1.4509264179369322e-01 1.8255204664064848e+00 1 0 0
303 1 2.6601976811265606e+00 4.0177848157309306e+00 3.4208327463254213e+00 0 0 0
181 1 3.4797205671046638e-01 4.4163005665374513e+00 7.8281639653012851e+00 0 0 0
110 1 4.9927820024294145e-01 3.0317251842632147e+00 3.1322601450428653e+00 0 0 0
3321 1 2.1370124885461066e+00 2.3060271009324769e+00 6.7386882583295522e+00 1 0 0
2986 1 2.8699547322939698e+00 6.8848339477988159e+00 3.3809088711485702e-01 1 0 0
3375 1 4.6847366428149328e+00 3.5008820624734156e+00 8.5432254566958115e+00 0 0 0
3333 1 1.1048241845651974e+00 3.6006178517781668e+00 9.9885163329067019e+00 1 0 0
142 1 4.0630194313300860e+00 4.7122218527565192e+00 2.4150474025253734e+00 0 0 0
4254 1 5.5772712246757115e+00 7.4885369011761937e-01 1.7422700780292513e+00 0 0 1
1446 1 1.2227140849551330e-01 5.8715934965716468e+00 2.7550511406863736e+00 1 0 0
1436 1 3.1054268706229244e+00 3.2566083038208484e+00 9.9330949595150875e-01 0 0 0
342 1 4.7317545491622806e+00 6.1073499884333202e+00 8.9424067354540249e+00 0 0 0
4487 1 6.4974683196690455e+00 6.2909867349968529e+00 7.1438307408247166e+00 1 0 0
180 1 4.4049313226738604e+00 8.0833288316648666e-01 8.9612018281732571e+00 0 0 0
1600 1 7.2743016413902488e+00 7.1054011670569253e+00 9.6819872884440983e-01 -1 0 0
1636 1 3.4787781165993961e+00 1.2214602398572083e-02 6.8510574427175488e+00 0 0 0
1853 1 5.2518862531111203e+00 3.4713262365465738e+00 9.4534219149537666e+00 0 0 0
158 1 7.0418796283511496e+00 1.7123685486632974e+00 8.3275460193392075e+00 0 0 0
4710 1 2.4535456013088637e+00 5.6484722479124434e+00 8.0125271898293651e+00 1 0 0
3002 1 7.1564811028707869e+00 4.3719359963812119e+00 8.9974760687096200e+00 0 0 0
1724 1 2.1976412572724113e+00 1.8918430176839282e-01 6.0189315832607093e+00 0 0 0
107 1 6.3551266950064011e+00 2.6196108702814298e+00 4.0244662655058603e+00 0 0 0
3148 1 5.2019733573261773e+00 2.8718366498684635e+00 3.1328222648229471e+00 0 0 0
1481 1 3.5428023640775983e+00 3.0896380462215651e+00 3.4593621240228969e+00 0 0 0
4133 1 2.9569218172614159e-01 1.8076131304260143e+00 1.8143366502058751e+00 0 0 1
1854 1 5.2561069194332255e+00 3.5868220704576492e+00 4.9968306236447644e+00 0 0 0
5435 1 2.3235208863182661e+00 1.0185339297795024e+00 9.9349789511179254e-01 0 1 1
241 1 7.2005811003553353e+00 2.5776982138633464e+00 7.5825293642543548e+00 0 0 0
4590 1 4.2696880613271819e+00 5.7760399197859131e+00 7.9855336742773595e+00 1 0 0
1611 1 5.8462855868342274e+00 3.7254644539294186e+00 1.6766625396305872e+00 0 0 0
1245 1 5.8314576274138465e+00 4.5405565847737330e+00 4.6685484595290587e+00 0 0 1
4633 1 4.3189751858162664e+00 5.2085233939248203e+00 5.1047121247078930e+00 1 0 0
5402 1 1.3616726969964541e+00 7.0876697606336316e+00 2.2610953572548240e+00 1 0 1
1646 1 3.6419690633894870e+00 1.6837307593420039e+00 5.4240968543732455e+00 0 0 0
2824 1 1.1703496002608671e+00 6.5126305454688209e+00 1.1331809685096657e+00 0 0 1
194 1 7.9854992644706557e-01 3.7305800620706537e+00 6.9859863426136197e+00 0 0 0
49 1 6.9169865098825785e+00 2.0344924488921965e+00 2.1335000844918546e+00 0 0 0
3655 1 6.9778989357481453e+00 6.2091555787970565e+00 9.6508831610262042e+00 0 0 0
4694 1 6.4013696112944407e+00 1.7003637404627858e+00 9.1445876579032639e+00 0 1 0
5483 1 5.2107878422322127e+00 3.3799975340276402e+00 9.0459742807900301e-01 0 0 1
1484 1 3.7067284681892931e+00 4.6007504309295104e+00 4.4581360316201799e+00 0 0 0
3394 1 2.1504015210127410e+00 1.8702903191029121e+00 1.0423800991558405e+01 1 0 0
55 1 5.8170429265290968e+00 3.4734294412212972e+00 2.7191448413139652e+00 0 0 0
34 1 6.9719407804178468e+00 5.4323344745543896e+00 7.8520804841196039e+00 0 0 0
4399 1 9.5625819655039523e-01 4.1866160143122491e+00 3.1433931809968452e+00 1 0 0
4549 1 5.7069107722968635e+00 1.2272989721485441e+00 5.5265624723083651e+00 0 0 0
5635 1 2.6130683636155174e+00 3.9334331277443058e+00 3.1996914107935309e-01 0 1 1
515 1 6.6823822496951912e+00 1.0428014405020549e+00 9.9813526393677421e+00 0 0 0
2839 1 3.4082143689902860e+00 2.3536772893481133e+00 2.4043983752127485e+00 0 0 0
1932 1 4.7526920047927135e+00 5.1677680404442681e+00 1.0702660533162430e+01 0 1 0
3142 1 6.1026446186248196e+00 5.5649698028043453e+00 3.3029282777915121e+00 0 0 0
346 1 1.0635057610880898e+00 1.0647004231471386e+00 3.6430711649453378e+00 0 0 0
1506 1 4.3109107063975642e+00 7.2708881537226793e+00 6.1993325586777361e+00 0 0 0
1602 1 2.8215420199788461e+00 4.2274330025323978e+00 1.6225505394921969e+00 0 0 0
269 1 6.0719447262119459e+00 1.0225650093177894e+00 7.8929156708147925e+00 0 0 0
3570 1 6.8530577631530880e+00 3.6931896585994215e+00 8.1963838165129275e+00 0 0 0
315 1 3.4056351566409573e+00 2.7466180653352090e+00 5.4712215593428057e+00 0 0 0
3221 1 4.8982102147992297e+00 4.9501194803141807e-01 5.6369134019794895e+00 1 0 0
3623 1 5.4077023731123255e+00 6.1774347597764834e+00 1.0677431424008269e+01 0 0 0
4686 1 2.5461434640388086e-01 5.6207830731364066e+00 7.7380645850839080e+00 1 0 0
1437 1 1.9731547837314947e+00 4.0054757975623216e+00 2.3118448947596253e+00 0 0 0
1595 1 4.9284392340876266e+00 2.2910160109420703e+00 8.8760074525370347e-01 0 0 0
3255 1 5.7294157976972322e+00 1.9328378547540532e+00 3.4728799707819107e+00 0 0 0
1406 1 6.7917005992326791e+00 6.7851656307117212e+00 2.8429240169555676e+00 0 0 1
4782 1 6.6851456427214115e+00 1.6968847870151511e+00 5.7126077923797904e+00 0 1 0
4017 1 6.9001878934588792e+00 1.4270173898665195e+00 2.2068437601511928e-01 0 0 1
1048 1 6.2701376975263772e+00 1.2426065889781113e+00 2.4119192415275346e+00 0 0 1
1482 1 4.9386659173405176e+00 4.1316342600176750e+00 1.9669359244289235e+00 0 0 0
24 1 1.7667548037487841e+00 5.7711508466441708e-01 4.3132911266842795e+00 0 0 0
128 1 4.8882059786399426e+00 1.7305262081139483e+00 4.1381177613216522e+00 0 0 0
1064 1 6.0605392876126762e+00 2.5107075792123625e+00 2.4155536207407704e+00 0 0 1
418 1 6.7758171639592097e+00 2.3170327457890022e-01 7.9132277513873932e+00 0 0 0
1474 1 1.2436285751050395e+00 3.1328628308011846e+00 3.9317804208259437e+00 0 0 0
1970 1 4.9605748479261598e+00 8.1039801675516965e-01 8.0295316723970114e+00 0 1 0
1735 1 3.2097733739702274e+00 5.3784725863286020e+00 6.4836071686692858e+00 0 0 0
1731 1 1.4988037064984230e+00 6.9535803023721945e+00 6.1363829945553316e+00 0 0 0
1897 1 3.1075486891547541e+00 3.6708212053889460e+00 2.5350141003676652e+00 0 0 0
3285 1 1.6998845928124462e+00 5.5549398916642980e+00 5.5813249903043056e+00 1 0 0
3214 1 4.9432437362401052e+00 8.3768135598280946e-01 3.6230750891610164e+00 0 0 0
364 1 1.4069416021376169e+00 5.9030987474569168e+00 7.8536320356624483e+00 0 0 0
1661 1 3.8052362973717258e-01 5.7534213765835336e+00 8.8602694614435542e+00 0 0 0
83 1 6.1990906774758709e+00 3.4010421701376048e+00 4.6758662768576098e+00 0 -1 0
4144 1 6.1434191455950549e+00 6.2839959812740354e+00 2.2884814946135809e-01 0 0 1
1083 1 8.3793071254091400e-01 4.9382002936742886e+00 8.5567761889850917e+00 0 0 1
4174 1 3.0458061649888299e+00 1.0786948663957812e+00 1.0849550881845936e-01 0 0 1
1605 1 5.0772156007687723e+00 3.5864945760788225e+00 6.2612067687109176e+00 0 0 0
404 1 3.1117421815561310e+00 1.9745705203438269e+00 6.4285972351638332e+00 0 0 0
3183 1 3.6235747087125145e+00 2.6230953640904886e+00 9.8305469822526117e+00 0 0 0
4357 1 3.7786863657486069e-01 3.7490251771800351e+00 4.0026264173893358e+00 1 0 0
3085 1 3.2400757740753816e+00 6.7354694713077352e+00 6.5039729195581302e+00 1 -1 0
237 1 3.4804185698157841e+00 7.0280402461784659e+00 1.7370719993022763e+00 0 0 0
1644 1 3.8625201767961310e+00 1.7739369184561871e+00 9.3391124666346688e+00 0 0 0
438 1 6.6253000594926945e+00 1.7569367014083030e+00 7.3375841962698711e+00 0 0 0
1548 1 6.4077186430290167e+00 1.2690903450561875e+00 3.9100693573529823e+00 0 1 0
1705 1 6.6382024910942172e-01 6.5419103575752020e+00 8.0360357802367837e+00 0 0 0
216 1 3.3999945922519381e+00 5.5883502767102673e+00 7.5032819508524042e+00 0 -1 0
46 1 7.0892297327013543e+00 3.9830821453388507e+00 4.9674669479421318e+00 0 0 0
1399 1 6.9136326176470786e-01 1.6294311563935693e+00 6.7332983183880246e-01 0 0 1
1680 1 5.7139430338305583e+00 3.0475856488141670e+00 8.5721673843014372e+00 0 0 0
465 1 1.0532474188926044e+00 4.6374165884054745e+00 9.5928939604179586e+00 0 0 0
1609 1 6.5275967694643078e-01 2.4325456067185841e-01 3.1513471729251887e+00 0 1 0
109 1 3.1462179656049673e-02 4.2586142344934963e+00 5.1174764771275161e+00 0 0 0
1862 1 6.5725971841416886e+00 7.1358594249090483e+00 6.1589311846026513e+00 0 0 0
3099 1 6.6147939686595327e+00 6.3492109839352917e+00 3.7502504060726563e+00 0 0 0
3068 1 4.6134353620246342e+00 3.4762554869451070e+00 3.8764795200878144e+00 1 0 0
3022 1 7.6052370208232778e-01 5.0882095002793060e+00 6.2542895942258969e+00 1 0 0
3279 1 5.0189915937309255e+00 4.9914673950660786e-02 4.6784066088204170e+00 1 0 0
4258 1 1.8920629695738911e+00 4.1969972909973778e+00 5.3075359210470356e+00 1 0 0
1520 1 3.5957272632486537e+00 4.2808149166624014e+00 7.2970223073502005e-01 0 0 0
4622 1 6.0306314587390881e+00 5.3106566180694745e+00 7.6050816472239846e-01 0 0 0
1687 1 4.5559416358177911e+00 1.3394887649858116e+00 5.8818882924226479e-01 0 1 0
506 1 2.9274135024356749e+00 2.4512080214221523e+00 4.6046269597653620e+00 0 0 0
1819 1 1.0977103478490811e+00 5.4645718881035457e+00 3.0975428491368913e+00 0 0 0
125 1 4.6022878285711375e+00 1.9466313071208536e+00 1.8931799615873746e+00 0 0 0
4300 1 4.9321853835982816e+00 4.4851128832263099e+00 6.7818381067156039e+00 1 0 0
154 1 6.9778557537133787e+00 3.5736195802197317e+00 6.0736408763664453e+00 0 1 0
103 1 5.5916606752787557e+00 8.9449049107236711e-01 4.5264827650573336e+00 0 0 0
1804 1 7.6592714196732559e-01 2.4705005941317806e+00 4.6117939978944751e+00 0 0 0
1934 1 3.4680317876751765e+00 3.5612769654189229e+00 7.1898893045041872e+00 0 1 0
4027 1 1.3622105525850465e+00 2.3231777043913149e+00 2.0859038972466859e+00 1 0 1
2475 1 5.9933510870960935e+00 2.1783151514143237e+00 3.6166135901901647e-01 0 1 1
1765 1 6.1316847555102703e+00 5.6861534927661923e+00 4.4933006738493351e+00 0 0 0
2921 1 6.7426751748384310e+00 2.6699645614574297e+00 8.7105025871926127e+00 0 0 0
4612 1 7.1402227462435661e+00 7.3083634555881760e-01 5.8647845648998596e+00 0 1 0
3087 1 1.9940091671215237e+00 2.8349183148698502e+00 5.0724458936453214e+00 1 0 0
458 1 5.2649582639050205e+00 5.3644045330845360e+00 8.3718608865020450e+00 0 0 0
483 1 5.8591442554833630e+00 5.5794873434194372e+00 9.2689006660523710e+00 0 0 0
384 1 3.1517458378481935e+00 6.4176725720165342e+00 3.1827800033922014e+00 0 0 0
313 1 6.2057164887516221e+00 6.6436800773721290e+00 5.2226837723386970e+00 0 0 0
299 1 4.9059864738745560e+00 2.6701568366632142e+00 7.9696514378311196e+00 0 0 0
2900 1 6.9357512212316745e+00 3.0326070412132284e+00 2.8317411321921138e+00 0 0 0
420 1 5.3733557777759975e+00 1.6339236629275840e+00 8.7424123004444390e+00 0 0 0
2010 1 3.8662538152926604e+00 6.4824738062372580e+00 7.3478141698867754e+00 0 0 0
3106 1 1.2614067306174943e+00 4.6424900590907203e+00 7.0099259105640801e+00 1 0 0
1686 1 4.3277998744337829e+00 2.2559033013830527e+00 3.4346056762791446e+00 0 0 0
4459 1 4.1593579991123510e+00 6.7050571021408727e+00 2.5122606272129762e+00 0 0 0
1766 1 3.6794693469243844e+00 1.6837110397942618e+00 1.0564363961473520e+01 0 0 0
202 1 4.6816160265191353e+00 1.4933861866255433e+00 5.1423931292522784e+00 0 0 0
3276 1 5.8235044589768910e+00 1.8270587439128221e+00 1.0337628513309703e+01 0 0 0
173 1 1.7342417843174818e+00 3.0769260091152679e+00 6.0173742590482977e+00 0 0 0
1472 1 6.7598221618600638e+00 1.9942206274985170e+00 3.2509467598190591e+00 0 1 0
3215 1 4.9938008578897319e+00 4.6198099352762112e+00 5.5202102704918179e+00 0 0 0
1889 1 6.6260494868900333e+00 4.7040460843415053e+00 3.9962886463257443e+00 0 0 0
3116 1 6.6862507662928783e+00 5.6871264648141018e-01 3.1741691149491200e+00 0 0 0
1597 1 2.3910950002818145e+00 5.2402321075218490e+00 1.9517047245006129e+00 0 0 0
3160 1 4.3609706440707647e+00 1.6555200923611133e+00 8.3843079302414942e+00 0 0 0
309 1 1.5121942613097190e+00 1.9158074702161725e+00 7.3751773888127543e+00 0 0 0
1434 1 2.7690796623767316e-01 7.1874765463852186e-01 1.1426298584094694e+00 0 1 0
157 1 5.8596651574344429e+00 4.5425793010475948e+00 2.5111392252434483e+00 0 0 0
3606 1 3.3952549054666875e-01 4.6070812472339977e+00 1.0370768772640169e+01 1 0 0
1657 1 5.1530025101297117e+00 5.4443425377091570e+00 2.7461536311438994e+00 0 0 0
1640 1 2.9475033369375816e+00 7.4700618979118505e-01 5.7961684643996039e+00 0 0 0
4375 1 1.7781185907703858e+00 2.2781526294330887e+00 4.1436463022634920e+00 1 1 0
371 1 4.2489714004400705e+00 3.0627630464916424e+00 1.0672963715686205e+01 0 0 0
3862 1 3.9702443505267926e+00 6.7670479848563909e+00 6.6427019355815398e-01 0 0 1
3490 1 5.6129952071639373e+00 1.1365758975988109e+00 9.5962497157117319e+00 0 0 0
627 1 6.3576632041825523e+00 4.3884521152253857e+00 1.0554673339479640e+01 0 0 0
1476 1 3.7316262469087191e+00 4.2052949838634515e+00 3.3051411620823403e+00 0 0 0
3088 1 2.4438473271363672e+00 6.6121504616424911e+00 4.2170247210418630e+00 1 -1 0
563 1 3.0149502320879216e+00 3.3939874073401186e+00 1.0137091008354561e+01 0 0 0
411 1 7.0481890455548868e+00 2.2456566765398951e+00 9.6868448096118769e+00 0 0 0
174 1 3.1025858929011889e+00 3.7925819413460404e+00 5.3336037290407745e+00 0 0 0
175 1 3.4928249416104133e+00 5.7490014269129528e+00 5.4315050435890946e+00 0 0 0
2223 1 5.3971357513702563e+00 1.7937146524414551e+00 7.3759861755036749e+00 0 1 0
1464 1 6.6834033351406816e+00 1.1270920516074030e+00 1.3295108722356803e+00 0 1 0
452 1 5.3764711665762928e+00 2.2076678292286918e+00 5.5008365899225922e+00 0 0 0
2946 1 2.5047913536570539e+00 1.4593729184017172e+00 4.1740699131759715e+00 1 0 0
1572 1 6.6215223156772964e+00 4.1067401657833358e+00 3.0864637504768115e+00 0 0 0
212 1 3.7868440524093011e-01 4.5603091551505864e-01 6.1389385423980212e+00 0 0 0
2829 1 4.5306123040093373e+00 2.5675142448565325e+00 9.2265728405803422e+00 0 0 1
1578 1 3.6793355097608238e-01 7.1326415986705305e+00 1.6314062815976171e+00 0 0 0
2868 1 2.7677148328460794e+00 4.5839628491400601e+00 7.2864247295286031e+00 1 0 0
3287 1 1.7207084325222262e+00 3.9965271773833204e+00 4.2408357289557603e+00 0 0 0
3515 1 1.8610944948279762e+00 6.2722503058748238e+00 1.0404252695517657e+01 1 0 0
39 1 5.5829534815805868e+00 4.6964872290587101e+00 3.6900435974676684e+00 0 0 0
32 1 4.7537873053445914e+00 4.4189945181311208e+00 4.4738504711482703e+00 0 0 0
1621 1 2.9419451136005983e+00 4.7020969756413340e+00 2.6763186102055609e+00 0 0 0
3025 1 1.3972915293340944e+00 3.0375329823570802e+00 1.1741348798240345e+00 1 0 0
178 1 4.0974846044230766e+00 4.0862887178913221e+00 1.0505126982388719e+01 0 0 0
192 1 3.8294981072863203e+00 5.7597159733507963e+00 4.2760457241422358e+00 0 0 0
3172 1 6.7787537367546893e+00 6.9011990847442135e+00 1.0592120184221093e+01 0 0 0
2895 1 7.3054511583316317e-01 2.8282720386583988e+00 5.7322875501586195e+00 1 0 0
1723 1 4.6619982053167162e+00 1.4891592890303900e+00 9.9223422360503406e+00 0 0 0
1814 1 5.4166286649704154e-01 1.5699223539072398e+00 5.6836798977301157e+00 0 0 0
3378 1 3.1070808765785936e+00 4.4732983698737234e+00 1.0117933268107098e+01 1 0 0
3873 1 8.4435034728208047e-01 2.0625623133045119e+00 3.5510837905757504e+00 1 0 1
1545 1 6.4865820385848476e+00 1.8731396391237848e-01 2.2297256343808702e+00 0 1 0
3254 1 5.9925361644375768e+00 7.2518059534264898e+00 7.0027617578590728e+00 0 0 0
1272 1 5.0384298306020003e+00 6.4549154239510917e+00 8.0826789896834883e-01 0 0 1
325 1 2.7589041472830265e+00 4.8023107394326425e+00 5.5525171102285062e+00 0 -1 0
387 1 5.0730562339723750e+00 2.6671558879521720e+00 6.8262798759603207e+00 0 0 0
4213 1 1.6993819816592384e+00 1.4753581834174119e+00 2.2651110123678009e-01 1 0 1
2941 1 4.2305418306695373e+00 6.1698163170974869e+00 1.5703659577190940e+00 0 0 0
2455 1 3.5181856620523670e+00 3.5015968918380291e-01 1.2044601490278459e+00 0 1 1
331 1 3.2118891968830141e+00 7.7808920124576086e-01 8.9204027648115023e+00 0 0 0
1761 1 4.8549658350617859e+00 6.5617375127668298e+00 6.9222649992981786e+00 0 0 0
3188 1 5.8809325470547495e+00 5.2215719722736900e+00 5.5443035782403269e+00 0 0 0
1803 1 2.0425454869071014e+00 3.4539357340260759e+00 7.4245460685079392e+00 0 0 0
689 1 5.6125934905735146e+00 3.5479092788385223e+00 1.0446954518408965e+01 0 0 0
3075 1 6.2158972157108963e+00 1.2392987550687570e-01 1.0947278135393004e+00 0 0 0
3189 1 2.9665547759854118e+00 1.2884991419485778e+00 9.8948846263157897e+00 1 0 0
974 1 6.6035102888046495e+00 8.0178858619665516e-01 4.8723612718827720e+00 0 0 1
229 1 5.7196126298714418e+00 3.6186477119866756e+00 3.7181722941517852e+00 0 0 0
2702 1 5.3504297866188386e+00 4.4075900326533688e+00 9.2723648265157166e-01 0 0 1
217 1 2.1850025784278249e-01 1.6153184034600332e+00 4.4168791916213435e+00 0 0 0
2059 1 3.1692101368966679e+00 4.3035285690368932e+00 6.2937773198407276e+00 0 1 0
318 1 6.0488941514891783e+00 3.7217513731590004e+00 6.6230538692515033e+00 0 0 0
3109 1 3.1289369780292935e+00 2.2947440030098254e+00 1.3168196176187841e+00 0 0 0
540 1 1.1424581837530225e+00 3.2950595606217465e+00 8.0258696080591978e+00 0 0 0
2836 1 9.8941159968944825e-01 1.4725920648663715e+00 2.6351944330499020e+00 1 0 0
4320 1 4.1136042641275381e+00 6.7516515036171905e+00 5.3824052881786706e+00 1 0 0
4602 1 6.4495174733377354e+00 3.6475613649523044e+00 9.3173526295339357e+00 0 1 0
1802 1 5.1042110480398701e+00 5.5942897078426510e+00 7.1715120253628672e+00 0 0 0
1374 1 6.5426577449983201e+00 4.8544728209657917e+00 1.5575431667647368e+00 0 0 1
432 1 4.5356574224855493e+00 3.5115060495230814e+00 7.3355266782933199e+00 0 0 0
4281 1 6.6166639762153390e-01 7.2051176422221364e+00 4.1244468465176692e-01 1 0 0
5633 1 2.4980384507967992e+00 7.5083822460907357e-01 2.0029332465360783e+00 1 1 1
395 1 9.4888339052382420e-01 4.9289152802255556e+00 5.1765652867603738e+00 0 0 0
3409 1 6.7644138378420866e+00 5.9413587194062680e+00 5.9508878888026153e+00 0 0 0
1902 1 2.2630533618448898e+00 1.1938122551199093e+00 8.3732787940361959e+00 0 0 0
489 1 5.1700977430178572e+00 1.5818876067485073e+00 2.6994533378455476e+00 0 0 0
464 1 1.8568324610526199e+00 4.2229338704891886e+00 9.1448198051256639e+00 0 0 0
3552 1 4.7475742161624916e+00 5.1194970277121472e+00 9.3891788195319812e+00 0 0 0
236 1 4.2215462773288737e+00 2.9519580949744308e+00 2.5447760908974244e+00 0 0 0
577 1 1.4834551798578582e-01 5.7279304820397421e+00 1.0037591434717307e+01 0 0 0
311 1 2.2217312180922622e+00 3.9192437387038779e+00 1.0411674103274258e+01 0 0 0
4725 1 3.0623895381406254e+00 2.0778490701513768e+00 3.4955065845694695e+00 1 0 0
1553 1 4.1324760408394292e+00 3.5726291567766024e+00 9.4437989778812419e+00 0 0 0
4595 1 3.1111156055746370e+00 6.6452280532498280e+00 5.2395071593975722e+00 1 0 0
123 1 6.2605319702248892e+00 4.7313009919228772e+00 6.6634635668598277e+00 0 0 0
4177 1 2.4837776446898028e+00 2.7555720520663884e+00 2.7750173042655919e+00 0 0 1
224 1 2.4441890312465393e+00 4.4064117892264559e-01 7.1508913906037739e+00 0 0 0
1450 1 6.0486216105289632e+00 4.5215621706935902e+00 9.5553288752416261e+00 0 1 0
3526 1 1.5155876545073457e+00 8.5381287606372613e-01 7.3922830322219193e+00 1 0 0
71 1 9.8631364070142136e-01 3.8545708330450070e+00 1.6857555430385371e+00 0 0 0
2991 1 3.2571094241110488e+00 5.8996367764715778e+00 2.3000582069192119e+00 1 0 0
1748 1 2.7448123149098000e+00 5.6216528242108446e+00 1.0492107776573507e+01 0 0 0
134 1 5.1700272626318866e-01 6.0720046083988555e-01 4.5568602960331335e+00 0 0 0
2964 1 1.6417187725148754e+00 3.2763755651726614e+00 2.9677989734550771e+00 1 0 0
2977 1 1.7490646517608710e+00 4.3406611913345037e+00 1.2155168749630005e+00 1 0 0
520 1 5.4978746124542290e+00 3.1679422753355391e-01 8.8644170993424218e+00 0 0 0
1728 1 2.1274709818405517e+00 1.3083742976504584e+00 6.2442903548920254e+00 0 0 0
201 1 2.1231370692608094e+00 5.1211293586595543e+00 6.4622782875633593e+00 0 0 0
460 1 5.7330915731671226e+00 3.1346625119406157e+00 7.4692089752496997e+00 0 0 0
257 1 5.6861832116469451e+00 6.6779819849604367e+00 4.1860266000924113e+00 0 0 0
1760 1 1.5198675583094934e+00 2.9763394052951861e+00 1.0711827980993830e+01 0 0 0
441 1 4.4041533343103119e+00 6.2318762944779085e+00 3.4547644476456818e+00 0 0 0
4534 1 1.3208650696086113e+00 1.3996099845834693e+00 9.5115723876202587e+00 1 1 0
244 1 1.0153349620590106e+00 1.2192984610549562e+00 6.5337734359074666e+00 0 0 0
503 1 6.7580208630460659e+00 7.0927343451721425e+00 9.0386078427260550e+00 -1 0 0
4547 1 5.4644654440222791e+00 6.5054152915478065e+00 3.0071422851162892e+00 0 0 0
264 1 3.1324363273952782e+00 6.0749498277081955e+00 8.6810075764288168e+00 0 0 0
127 1 5.1373369226183820e+00 5.6987771282520736e+00 4.0172448868213486e+00 0 0 0
4315 1 2.0673249524770405e+00 6.3608040164939439e+00 1.6819214480405975e+00 1 0 0
3138 1 6.6328282345773228e+00 2.6298600282976272e+00 6.6757114829411961e+00 0 0 0
268 1 2.2332709260729633e+00 1.2494248173964659e+00 5.1458580152494857e+00 0 0 0
4665 1 3.4474337186027570e+00 6.5982580703667812e+00 9.8555847763352755e+00 0 0 0
1815 1 8.6546798960754057e-01 4.8040052693855602e+00 4.0879456370719369e+00 0 0 0
3132 1 5.8794251204535346e+00 4.1181543819220749e+00 7.6760351884758666e+00 0 0 0
4298 1 6.5470854552767834e+00 7.2755416304797089e+00 1.4622900205837697e-01 0 0 0
243 1 3.9429940617091126e+00 5.0506331524977552e+00 8.7209450812384368e+00 0 0 0
1616 1 1.1471677772674587e+00 5.5025816452647440e+00 1.0406458970739656e+01 0 0 0
1870 1 5.8818861453701898e-01 6.9612446146207574e-01 7.9497418668866322e+00 0 1 0
1844 1 4.1722661973724771e+00 6.0021338793144743e+00 6.4201803303486242e+00 0 0 0
277 1 2.9761807397039983e+00 3.9680186118325520e+00 9.1674831238222598e+00 0 0 0
335 1 3.7954812627751302e+00 4.6597229408329728e+00 7.1262514573372142e+00 0 0 0
1647 1 2.1872389994360986e+00 2.8950452884601643e+00 3.2268042838896915e-01 0 0 0
593 1 7.0027061020962167e+00 3.5509370646355012e+00 3.9574343911872942e+00 0 0 0
2922 1 4.7006570938932422e+00 1.8930108351201366e-01 8.9319193777184602e-01 0 0 0
3040 1 4.1470597610208157e+00 3.7681235694463280e+00 4.9479840793457219e+00 1 0 0
2980 1 4.0754370586669513e+00 3.2815306207519233e+00 5.9828158267085951e-01 0 0 0
368 1 1.8995666214753675e+00 3.0576987142449812e+00 8.8902126450813306e+00 0 0 0
98 1 4.6903431861253564e+00 6.6823927208916709e+00 7.9780148740354644e+00 0 0 0
2656 1 3.3732357187102369e+00 1.0712316157965853e+00 6.9143023366021152e+00 0 1 1
1808 1 2.4751656893203631e+00 3.0540319041343036e+00 3.8444995398599113e+00 0 0 0
1758 1 3.8822580591147826e+00 7.6286238210566526e-01 9.9730930276004326e+00 0 0 0
213 1 3.8899192945399532e+00 2.7538849388853799e+00 8.2693753129739314e+00 0 0 0
2035 1 6.2608615999141790e+00 4.8669883767495214e+00 8.4999771491182710e+00 0 0 0
3292 1 1.2779911212354218e+00 1.4808232511156711e+00 4.7749239317753265e+00 1 0 0
350 1 2.4392155433085994e+00 1.4354449061796244e+00 7.3569101013949316e+00 0 0 0
4273 1 2.3001624964371929e+00 5.9009385119700664e+00 2.7342446182366524e+00 1 0 0
2873 1 3.1295788739143564e+00 6.7828182362785636e+00 7.9507137852481966e+00 1 0 0
1726 1 5.8041402633057624e+00 6.0786199050926628e+00 6.4637213384791190e+00 0 0 0
1742 1 1.5175384626374520e+00 6.2006474807674765e+00 4.7066053716820120e+00 0 0 0
2906 1 4.8506481310655297e-02 5.0281339128192037e+00 2.1494636655073368e-01 1 0 0
3152 1 1.3224524729630369e+00 5.7895275430122934e+00 9.4138312627322716e+00 1 0 0
4436 1 2.1046457905231586e+00 6.0877610037852072e+00 6.4514225224546751e-01 1 0 0
4218 1 8.9616719076820273e-01 5.9147148111520202e+00 1.9399357831782003e+00 1 0 1
3447 1 6.3277259908146757e+00 7.1033846366727058e+00 8.0371580758377057e+00 0 0 0
1326 1 3.5835337458176095e+00 1.3679389954422385e+00 1.0374305232775118e+00 0 0 1
457 1 2.9183067543968741e+00 2.6834105428929029e+00 9.0342098897980012e+00 0 0 0
1622 1 2.5542275195818496e+00 6.1067422240793086e+00 5.8993691961047361e+00 0 0 0
102 1 3.8198432923265448e+00 1.1803780595833813e+00 3.3365010582934200e+00 0 0 0
2053 1 6.0175159937752465e+00 2.1154689099871787e-01 9.8950412430699188e+00 0 1 0
427 1 2.2133674763168436e+00 6.7844118563230094e-01 9.4681671396593359e+00 0 0 0
1242 1 2.3098785829517010e+00 3.1366260172807747e+00 1.7173197166385517e+00 0 0 1
253 1 5.1577569992596950e-01 2.4243340002682521e+00 8.1091376145653449e+00 0 0 0
263 1 1.6483796773517532e+00 6.3295058172041851e-01 2.8215887664083041e+00 0 0 0
275 1 5.9761313743197313e+00 5.3392369508712161e+00 7.5635139203859927e+00 0 0 0
3103 1 3.8970652658304163e+00 1.6155796785102128e+00 4.3318326756339420e+00 0 0 0
1234 1 1.1593200394596612e-01 9.5585675657863134e-01 2.3827613630708879e+00 0 0 1
433 1 2.4739122673512046e+00 2.2053134116028494e+00 5.7416297529280982e+00 0 0 0
2976 1 1.3036970337490261e+00 5.9191325069726897e-01 7.1902532215864989e-01 1 0 0
121 1 7.0882355293500483e+00 1.8793465245182839e+00 4.6134388610227921e+00 0 0 0
4166 1 1.8319193418187758e+00 4.9714845433030321e+00 4.5833598599677137e+00 1 0 1
363 1 5.8420096003320054e+00 2.8565330830766062e+00 6.0489913182277206e+00 0 0 0
3306 1 2.7942277840564599e-02 3.3383258480186431e+00 8.3737555455833146e+00 1 0 0
219 1 2.0084382921232651e+00 4.8549171303079008e+00 3.3751130487328944e+00 0 0 0
59 1 7.2526071458696695e+00 5.1260539831386556e+00 3.1414219442683406e+00 0 0 0
3793 1 1.2437044778920829e+00 7.1541670793833889e+00 7.5285653375153068e+00 1 0 1
280 1 5.8564026766498811e+00 1.7956867264186367e+00 1.6392788796813531e+00 0 0 0
1524 1 5.3458387189010157e+00 5.3231820940063272e+00 1.7089815243953865e+00 0 0 0
88 1 3.6700272647900340e+00 1.3909524954061272e+00 2.2828045839675601e+00 0 0 0
4168 1 6.5450900975766357e+00 6.2440115595122689e+00 1.2348410342391760e+00 0 0 1
1736 1 4.0183742423934738e+00 4.8969660108345137e+00 6.0729885465175180e+00 0 0 0
2937 1 5.8349640609184983e-01 6.0519625310314842e+00 5.7955309795497518e+00 1 0 0
615 1 5.1875776502591346e+00 7.1804004656710356e+00 1.0037768567290017e+01 0 0 0
3516 1 3.1941418249525442e+00 1.7020306736402435e+00 8.2568492442458794e+00 1 0 0
3064 1 7.0013341078170210e+00 2.3209719674293838e+00 9.7816554227178309e-01 0 0 0
2952 1 2.3797183772722295e+00 5.9508198355088409e+00 9.3527195466633390e+00 0 0 0
1297 1 3.1644745219026182e+00 6.0511604346228731e+00 1.1594610351575940e+00 0 0 1
1875 1 2.7845489165648969e+00 5.4730625570923683e+00 4.6466168835061188e+00 0 0 0
4520 1 4.5866565935995434e+00 6.5805658585469615e+00 4.4428217594190826e+00 1 0 0
1780 1 4.5984599448573631e+00 6.2272022639821580e+00 1.0037230282267712e+01 0 0 0
3051 1 2.6968662804274568e+00 3.4103785788812178e+00 8.2587203749041542e+00 0 0 0
3218 1 3.9606591041490811e+00 3.5722322808815292e+00 6.1266367323198523e+00 1 0 0
3092 1 4.5073429883921481e+00 6.3876667056917635e-01 2.7220508210348866e+00 0 0 0
4450 1 6.0011134372811412e+00 6.5965563682387671e+00 9.8710573488848805e+00 0 0 0
4582 1 3.7131332874969769e+00 5.5115700252019852e+00 9.8378326702421770e+00 0 0 0
1678 1 4.9999208674024187e+00 5.5117837715933327e+00 6.1568668161964455e+00 0 0 0
13 1 1.3288962873541670e+00 5.8895643017149579e+00 6.7884768465265362e+00 0 0 0
4480 1 1.4547876942653846e+00 7.1575521148341439e+00 4.1291735887866263e+00 1 0 0
345 1 4.2150531580651434e+00 1.7593996517399637e+00 7.2908225495380101e+00 0 0 0
53 1 5.3179383240887619e+00 8.8884910902522551e-01 6.6260069828451718e+00 0 0 0
1703 1 9.1981784100447017e-01 6.5907837306524222e+00 3.1116725297073740e+00 0 0 0
2783 1 1.8113919754196046e+00 5.7397812060471676e+00 3.8643234720053599e+00 0 0 1
1561 1 3.6177194454570651e+00 6.7979073728475790e+00 4.0012313497472674e+00 0 0 0
3102 1 6.4871592051943594e+00 7.2367806984579075e-01 6.8618199660215158e+00 0 0 0
1 1 3.5155233396374994e+00 2.8722886560658190e-01 2.5719778205574713e+00 0 0 0
4409 1 1.8437319970347546e-01 4.8520289796395790e+00 2.3191799949257503e+00 1 1 0
361 1 5.3367870502845642e+00 4.3681808445248693e+00 8.6815689373617868e+00 0 0 0
473 1 6.7927353006077604e+00 5.1547704461731945e+00 9.9110017286009917e+00 0 0 0
1560 1 1.4571203650796856e+00 6.6668420141769786e+00 8.7241751037464059e+00 0 0 0
4169 1 9.0587852828622295e-01 5.6165395123157529e+00 4.0237962823246948e-01 1 0 1
357 1 5.1082570877847591e+00 2.5706738063808583e+00 1.0102562533245624e+01 0 0 0
6 1 6.0674536174766143e+00 2.7417319433049352e+00 1.3216011095895817e+00 0 0 0
3445 1 5.9291805150222521e+00 1.8524513033373300e+00 6.4309760884962390e+00 0 0 0
1718 1 2.0476596245197007e+00 4.9485717516025476e+00 9.9419763792605700e+00 0 0 0
3173 1 3.9779068945339939e+00 2.7524911298895089e+00 4.4732881343642452e+00 0 0 0
99 1 1.1160345136086207e+00 4.4893199953307217e-01 9.9953385279239342e+00 0 0 0
4499 1 2.6931384989109719e+00 1.9656352332747060e+00 3.9872992124551915e-01 0 0 0