LAMMPS lj fcc 111 crystal
     
4752 atoms   
1 atom types  
     
0.00000000 12.582117838195341 xlo xhi 
0.00000000 11.887018561403465 ylo yhi 
0.00000000 33.621565731434998 zlo zhi 
     
Atoms    
     
1 1 1 0.85787167078604587 0.49529244005847761 0.46696619071437490
2 2 1 0.28595722359534864 1.4858773201754327 0.46696619071437490
3 3 1 2.0017005651674404 0.49529244005847761 0.46696619071437490
4 4 1 1.4297861179767433 1.4858773201754327 0.46696619071437490
5 5 1 3.1455294595488352 0.49529244005847761 0.46696619071437490
6 6 1 2.5736150123581378 1.4858773201754327 0.46696619071437490
7 7 1 4.2893583539302300 0.49529244005847761 0.46696619071437490
8 8 1 3.7174439067395322 1.4858773201754327 0.46696619071437490
9 9 1 5.4331872483116239 0.49529244005847761 0.46696619071437490
10 10 1 4.8612728011209265 1.4858773201754327 0.46696619071437490
11 11 1 6.5770161426930187 0.49529244005847761 0.46696619071437490
12 12 1 6.0051016955023213 1.4858773201754327 0.46696619071437490
13 13 1 7.7208450370744135 0.49529244005847761 0.46696619071437490
14 14 1 7.1489305898837161 1.4858773201754327 0.46696619071437490
15 15 1 8.8646739314558083 0.49529244005847761 0.46696619071437490
16 16 1 8.2927594842651100 1.4858773201754327 0.46696619071437490
17 17 1 10.008502825837203 0.49529244005847761 0.46696619071437490
18 18 1 9.4365883786465048 1.4858773201754327 0.46696619071437490
19 19 1 11.152331720218598 0.49529244005847761 0.46696619071437490
20 20 1 10.580417273027900 1.4858773201754327 0.46696619071437490
21 21 1 12.296160614599991 0.49529244005847761 0.46696619071437490
22 22 1 11.724246167409294 1.4858773201754327 0.46696619071437490
23 23 1 0.85787167078604587 2.4764622002923882 0.46696619071437490
24 24 1 0.28595722359534864 3.4670470804093432 0.46696619071437490
25 25 1 2.0017005651674404 2.4764622002923882 0.46696619071437490
26 26 1 1.4297861179767433 3.4670470804093432 0.46696619071437490
27 27 1 3.1455294595488352 2.4764622002923882 0.46696619071437490
28 28 1 2.5736150123581378 3.4670470804093432 0.46696619071437490
29 29 1 4.2893583539302300 2.4764622002923882 0.46696619071437490
30 30 1 3.7174439067395322 3.4670470804093432 0.46696619071437490
31 31 1 5.4331872483116239 2.4764622002923882 0.46696619071437490
32 32 1 4.8612728011209265 3.4670470804093432 0.46696619071437490
33 33 1 6.5770161426930187 2.4764622002923882 0.46696619071437490
34 34 1 6.0051016955023213 3.4670470804093432 0.46696619071437490
35 35 1 7.7208450370744135 2.4764622002923882 0.46696619071437490
36 36 1 7.1489305898837161 3.4670470804093432 0.46696619071437490
37 37 1 8.8646739314558083 2.4764622002923882 0.46696619071437490
38 38 1 8.2927594842651100 3.4670470804093432 0.46696619071437490
39 39 1 10.008502825837203 2.4764622002923882 0.46696619071437490
40 40 1 9.4365883786465048 3.4670470804093432 0.46696619071437490
41 41 1 11.152331720218598 2.4764622002923882 0.46696619071437490
42 42 1 10.580417273027900 3.4670470804093432 0.46696619071437490
43 43 1 12.296160614599991 2.4764622002923882 0.46696619071437490
44 44 1 11.724246167409294 3.4670470804093432 0.46696619071437490
45 45 1 0.85787167078604587 4.4576319605262986 0.46696619071437490
46 46 1 0.28595722359534864 5.4482168406432541 0.46696619071437490
47 47 1 2.0017005651674404 4.4576319605262986 0.46696619071437490
48 48 1 1.4297861179767433 5.4482168406432541 0.46696619071437490
49 49 1 3.1455294595488352 4.4576319605262986 0.46696619071437490
50 50 1 2.5736150123581378 5.4482168406432541 0.46696619071437490
51 51 1 4.2893583539302300 4.4576319605262986 0.46696619071437490
52 52 1 3.7174439067395322 5.4482168406432541 0.46696619071437490
53 53 1 5.4331872483116239 4.4576319605262986 0.46696619071437490
54 54 1 4.8612728011209265 5.4482168406432541 0.46696619071437490
55 55 1 6.5770161426930187 4.4576319605262986 0.46696619071437490
56 56 1 6.0051016955023213 5.4482168406432541 0.46696619071437490
57 57 1 7.7208450370744135 4.4576319605262986 0.46696619071437490
58 58 1 7.1489305898837161 5.4482168406432541 0.46696619071437490
59 59 1 8.8646739314558083 4.4576319605262986 0.46696619071437490
60 60 1 8.2927594842651100 5.4482168406432541 0.46696619071437490
61 61 1 10.008502825837203 4.4576319605262986 0.46696619071437490
62 62 1 9.4365883786465048 5.4482168406432541 0.46696619071437490
63 63 1 11.152331720218598 4.4576319605262986 0.46696619071437490
64 64 1 10.580417273027900 5.4482168406432541 0.46696619071437490
65 65 1 12.296160614599991 4.4576319605262986 0.46696619071437490
66 66 1 11.724246167409294 5.4482168406432541 0.46696619071437490
67 67 1 0.85787167078604587 6.4388017207602086 0.46696619071437490
68 68 1 0.28595722359534864 7.4293866008771641 0.46696619071437490
69 69 1 2.0017005651674404 6.4388017207602086 0.46696619071437490
70 70 1 1.4297861179767433 7.4293866008771641 0.46696619071437490
71 71 1 3.1455294595488352 6.4388017207602086 0.46696619071437490
72 72 1 2.5736150123581378 7.4293866008771641 0.46696619071437490
73 73 1 4.2893583539302300 6.4388017207602086 0.46696619071437490
74 74 1 3.7174439067395322 7.4293866008771641 0.46696619071437490
75 75 1 5.4331872483116239 6.4388017207602086 0.46696619071437490
76 76 1 4.8612728011209265 7.4293866008771641 0.46696619071437490
77 77 1 6.5770161426930187 6.4388017207602086 0.46696619071437490
78 78 1 6.0051016955023213 7.4293866008771641 0.46696619071437490
79 79 1 7.7208450370744135 6.4388017207602086 0.46696619071437490
80 80 1 7.1489305898837161 7.4293866008771641 0.46696619071437490
81 81 1 8.8646739314558083 6.4388017207602086 0.46696619071437490
82 82 1 8.2927594842651100 7.4293866008771641 0.46696619071437490
83 83 1 10.008502825837203 6.4388017207602086 0.46696619071437490
84 84 1 9.4365883786465048 7.4293866008771641 0.46696619071437490
85 85 1 11.152331720218598 6.4388017207602086 0.46696619071437490
86 86 1 10.580417273027900 7.4293866008771641 0.46696619071437490
87 87 1 12.296160614599991 6.4388017207602086 0.46696619071437490
88 88 1 11.724246167409294 7.4293866008771641 0.46696619071437490
89 89 1 0.85787167078604587 8.4199714809941195 0.46696619071437490
90 90 1 0.28595722359534864 9.4105563611110750 0.46696619071437490
91 91 1 2.0017005651674404 8.4199714809941195 0.46696619071437490
92 92 1 1.4297861179767433 9.4105563611110750 0.46696619071437490
93 93 1 3.1455294595488352 8.4199714809941195 0.46696619071437490
94 94 1 2.5736150123581378 9.4105563611110750 0.46696619071437490
95 95 1 4.2893583539302300 8.4199714809941195 0.46696619071437490
96 96 1 3.7174439067395322 9.4105563611110750 0.46696619071437490
97 97 1 5.4331872483116239 8.4199714809941195 0.46696619071437490
98 98 1 4.8612728011209265 9.4105563611110750 0.46696619071437490
99 99 1 6.5770161426930187 8.4199714809941195 0.46696619071437490
100 100 1 6.0051016955023213 9.4105563611110750 0.46696619071437490
101 101 1 7.7208450370744135 8.4199714809941195 0.46696619071437490
102 102 1 7.1489305898837161 9.4105563611110750 0.46696619071437490
103 103 1 8.8646739314558083 8.4199714809941195 0.46696619071437490
104 104 1 8.2927594842651100 9.4105563611110750 0.46696619071437490
105 105 1 10.008502825837203 8.4199714809941195 0.46696619071437490
106 106 1 9.4365883786465048 9.4105563611110750 0.46696619071437490
107 107 1 11.152331720218598 8.4199714809941195 0.46696619071437490
108 108 1 10.580417273027900 9.4105563611110750 0.46696619071437490
109 109 1 12.296160614599991 8.4199714809941195 0.46696619071437490
110 110 1 11.724246167409294 9.4105563611110750 0.46696619071437490
111 111 1 0.85787167078604587 10.401141241228030 0.46696619071437490
112 112 1 0.28595722359534864 11.391726121344986 0.46696619071437490
113 113 1 2.0017005651674404 10.401141241228030 0.46696619071437490
114 114 1 1.4297861179767433 11.391726121344986 0.46696619071437490
115 115 1 3.1455294595488352 10.401141241228030 0.46696619071437490
116 116 1 2.5736150123581378 11.391726121344986 0.46696619071437490
117 117 1 4.2893583539302300 10.401141241228030 0.46696619071437490
118 118 1 3.7174439067395322 11.391726121344986 0.46696619071437490
119 119 1 5.4331872483116239 10.401141241228030 0.46696619071437490
120 120 1 4.8612728011209265 11.391726121344986 0.46696619071437490
121 121 1 6.5770161426930187 10.401141241228030 0.46696619071437490
122 122 1 6.0051016955023213 11.391726121344986 0.46696619071437490
123 123 1 7.7208450370744135 10.401141241228030 0.46696619071437490
124 124 1 7.1489305898837161 11.391726121344986 0.46696619071437490
125 125 1 8.8646739314558083 10.401141241228030 0.46696619071437490
126 126 1 8.2927594842651100 11.391726121344986 0.46696619071437490
127 127 1 10.008502825837203 10.401141241228030 0.46696619071437490
128 128 1 9.4365883786465048 11.391726121344986 0.46696619071437490
129 129 1 11.152331720218598 10.401141241228030 0.46696619071437490
130 130 1 10.580417273027900 11.391726121344986 0.46696619071437490
131 131 1 12.296160614599991 10.401141241228030 0.46696619071437490
132 132 1 11.724246167409294 11.391726121344986 0.46696619071437490
133 133 1 0.28595722359534864 0.82548740009746269 1.4008985721431246
134 134 1 0.85787167078604587 1.8160722802144180 1.4008985721431246
135 135 1 1.4297861179767433 0.82548740009746269 1.4008985721431246
136 136 1 2.0017005651674404 1.8160722802144180 1.4008985721431246
137 137 1 2.5736150123581378 0.82548740009746269 1.4008985721431246
138 138 1 3.1455294595488352 1.8160722802144180 1.4008985721431246
139 139 1 3.7174439067395322 0.82548740009746269 1.4008985721431246
140 140 1 4.2893583539302300 1.8160722802144180 1.4008985721431246
141 141 1 4.8612728011209265 0.82548740009746269 1.4008985721431246
142 142 1 5.4331872483116239 1.8160722802144180 1.4008985721431246
143 143 1 6.0051016955023213 0.82548740009746269 1.4008985721431246
144 144 1 6.5770161426930187 1.8160722802144180 1.4008985721431246
145 145 1 7.1489305898837161 0.82548740009746269 1.4008985721431246
146 146 1 7.7208450370744135 1.8160722802144180 1.4008985721431246
147 147 1 8.2927594842651100 0.82548740009746269 1.4008985721431246
148 148 1 8.8646739314558083 1.8160722802144180 1.4008985721431246
149 149 1 9.4365883786465048 0.82548740009746269 1.4008985721431246
150 150 1 10.008502825837203 1.8160722802144180 1.4008985721431246
151 151 1 10.580417273027900 0.82548740009746269 1.4008985721431246
152 152 1 11.152331720218598 1.8160722802144180 1.4008985721431246
153 153 1 11.724246167409294 0.82548740009746269 1.4008985721431246
154 154 1 12.296160614599991 1.8160722802144180 1.4008985721431246
155 155 1 0.28595722359534864 2.8066571603313730 1.4008985721431246
156 156 1 0.85787167078604587 3.7972420404483285 1.4008985721431246
157 157 1 1.4297861179767433 2.8066571603313730 1.4008985721431246
158 158 1 2.0017005651674404 3.7972420404483285 1.4008985721431246
159 159 1 2.5736150123581378 2.8066571603313730 1.4008985721431246
160 160 1 3.1455294595488352 3.7972420404483285 1.4008985721431246
161 161 1 3.7174439067395322 2.8066571603313730 1.4008985721431246
162 162 1 4.2893583539302300 3.7972420404483285 1.4008985721431246
163 163 1 4.8612728011209265 2.8066571603313730 1.4008985721431246
164 164 1 5.4331872483116239 3.7972420404483285 1.4008985721431246
165 165 1 6.0051016955023213 2.8066571603313730 1.4008985721431246
166 166 1 6.5770161426930187 3.7972420404483285 1.4008985721431246
167 167 1 7.1489305898837161 2.8066571603313730 1.4008985721431246
168 168 1 7.7208450370744135 3.7972420404483285 1.4008985721431246
169 169 1 8.2927594842651100 2.8066571603313730 1.4008985721431246
170 170 1 8.8646739314558083 3.7972420404483285 1.4008985721431246
171 171 1 9.4365883786465048 2.8066571603313730 1.4008985721431246
172 172 1 10.008502825837203 3.7972420404483285 1.4008985721431246
173 173 1 10.580417273027900 2.8066571603313730 1.4008985721431246
174 174 1 11.152331720218598 3.7972420404483285 1.4008985721431246
175 175 1 11.724246167409294 2.8066571603313730 1.4008985721431246
176 176 1 12.296160614599991 3.7972420404483285 1.4008985721431246
177 177 1 0.28595722359534864 4.7878269205652835 1.4008985721431246
178 178 1 0.85787167078604587 5.7784118006822389 1.4008985721431246
179 179 1 1.4297861179767433 4.7878269205652835 1.4008985721431246
180 180 1 2.0017005651674404 5.7784118006822389 1.4008985721431246
181 181 1 2.5736150123581378 4.7878269205652835 1.4008985721431246
182 182 1 3.1455294595488352 5.7784118006822389 1.4008985721431246
183 183 1 3.7174439067395322 4.7878269205652835 1.4008985721431246
184 184 1 4.2893583539302300 5.7784118006822389 1.4008985721431246
185 185 1 4.8612728011209265 4.7878269205652835 1.4008985721431246
186 186 1 5.4331872483116239 5.7784118006822389 1.4008985721431246
187 187 1 6.0051016955023213 4.7878269205652835 1.4008985721431246
188 188 1 6.5770161426930187 5.7784118006822389 1.4008985721431246
189 189 1 7.1489305898837161 4.7878269205652835 1.4008985721431246
190 190 1 7.7208450370744135 5.7784118006822389 1.4008985721431246
191 191 1 8.2927594842651100 4.7878269205652835 1.4008985721431246
192 192 1 8.8646739314558083 5.7784118006822389 1.4008985721431246
193 193 1 9.4365883786465048 4.7878269205652835 1.4008985721431246
194 194 1 10.008502825837203 5.7784118006822389 1.4008985721431246
195 195 1 10.580417273027900 4.7878269205652835 1.4008985721431246
196 196 1 11.152331720218598 5.7784118006822389 1.4008985721431246
197 197 1 11.724246167409294 4.7878269205652835 1.4008985721431246
198 198 1 12.296160614599991 5.7784118006822389 1.4008985721431246
199 199 1 0.28595722359534864 6.7689966807991944 1.4008985721431246
200 200 1 0.85787167078604587 7.7595815609161489 1.4008985721431246
201 201 1 1.4297861179767433 6.7689966807991944 1.4008985721431246
202 202 1 2.0017005651674404 7.7595815609161489 1.4008985721431246
203 203 1 2.5736150123581378 6.7689966807991944 1.4008985721431246
204 204 1 3.1455294595488352 7.7595815609161489 1.4008985721431246
205 205 1 3.7174439067395322 6.7689966807991944 1.4008985721431246
206 206 1 4.2893583539302300 7.7595815609161489 1.4008985721431246
207 207 1 4.8612728011209265 6.7689966807991944 1.4008985721431246
208 208 1 5.4331872483116239 7.7595815609161489 1.4008985721431246
209 209 1 6.0051016955023213 6.7689966807991944 1.4008985721431246
210 210 1 6.5770161426930187 7.7595815609161489 1.4008985721431246
211 211 1 7.1489305898837161 6.7689966807991944 1.4008985721431246
212 212 1 7.7208450370744135 7.7595815609161489 1.4008985721431246
213 213 1 8.2927594842651100 6.7689966807991944 1.4008985721431246
214 214 1 8.8646739314558083 7.7595815609161489 1.4008985721431246
215 215 1 9.4365883786465048 6.7689966807991944 1.4008985721431246
216 216 1 10.008502825837203 7.7595815609161489 1.4008985721431246
217 217 1 10.580417273027900 6.7689966807991944 1.4008985721431246
218 218 1 11.152331720218598 7.7595815609161489 1.4008985721431246
219 219 1 11.724246167409294 6.7689966807991944 1.4008985721431246
220 220 1 12.296160614599991 7.7595815609161489 1.4008985721431246
221 221 1 0.28595722359534864 8.7501664410331053 1.4008985721431246
222 222 1 0.85787167078604587 9.7407513211500589 1.4008985721431246
223 223 1 1.4297861179767433 8.7501664410331053 1.4008985721431246
224 224 1 2.0017005651674404 9.7407513211500589 1.4008985721431246
225 225 1 2.5736150123581378 8.7501664410331053 1.4008985721431246
226 226 1 3.1455294595488352 9.7407513211500589 1.4008985721431246
227 227 1 3.7174439067395322 8.7501664410331053 1.4008985721431246
228 228 1 4.2893583539302300 9.7407513211500589 1.4008985721431246
229 229 1 4.8612728011209265 8.7501664410331053 1.4008985721431246
230 230 1 5.4331872483116239 9.7407513211500589 1.4008985721431246
231 231 1 6.0051016955023213 8.7501664410331053 1.4008985721431246
232 232 1 6.5770161426930187 9.7407513211500589 1.4008985721431246
233 233 1 7.1489305898837161 8.7501664410331053 1.4008985721431246
234 234 1 7.7208450370744135 9.7407513211500589 1.4008985721431246
235 235 1 8.2927594842651100 8.7501664410331053 1.4008985721431246
236 236 1 8.8646739314558083 9.7407513211500589 1.4008985721431246
237 237 1 9.4365883786465048 8.7501664410331053 1.4008985721431246
238 238 1 10.008502825837203 9.7407513211500589 1.4008985721431246
239 239 1 10.580417273027900 8.7501664410331053 1.4008985721431246
240 240 1 11.152331720218598 9.7407513211500589 1.4008985721431246
241 241 1 11.724246167409294 8.7501664410331053 1.4008985721431246
242 242 1 12.296160614599991 9.7407513211500589 1.4008985721431246
243 243 1 0.28595722359534864 10.731336201267014 1.4008985721431246
244 244 1 0.85787167078604587 11.721921081383970 1.4008985721431246
245 245 1 1.4297861179767433 10.731336201267014 1.4008985721431246
246 246 1 2.0017005651674404 11.721921081383970 1.4008985721431246
247 247 1 2.5736150123581378 10.731336201267014 1.4008985721431246
248 248 1 3.1455294595488352 11.721921081383970 1.4008985721431246
249 249 1 3.7174439067395322 10.731336201267014 1.4008985721431246
250 250 1 4.2893583539302300 11.721921081383970 1.4008985721431246
251 251 1 4.8612728011209265 10.731336201267014 1.4008985721431246
252 252 1 5.4331872483116239 11.721921081383970 1.4008985721431246
253 253 1 6.0051016955023213 10.731336201267014 1.4008985721431246
254 254 1 6.5770161426930187 11.721921081383970 1.4008985721431246
255 255 1 7.1489305898837161 10.731336201267014 1.4008985721431246
256 256 1 7.7208450370744135 11.721921081383970 1.4008985721431246
257 257 1 8.2927594842651100 10.731336201267014 1.4008985721431246
258 258 1 8.8646739314558083 11.721921081383970 1.4008985721431246
259 259 1 9.4365883786465048 10.731336201267014 1.4008985721431246
260 260 1 10.008502825837203 11.721921081383970 1.4008985721431246
261 261 1 10.580417273027900 10.731336201267014 1.4008985721431246
262 262 1 11.152331720218598 11.721921081383970 1.4008985721431246
263 263 1 11.724246167409294 10.731336201267014 1.4008985721431246
264 264 1 12.296160614599991 11.721921081383970 1.4008985721431246
265 265 1 0.28595722359534864 0.16509748001949254 2.3348309535718745
266 266 1 0.85787167078604587 1.1556823601364479 2.3348309535718745
267 267 1 1.4297861179767433 0.16509748001949254 2.3348309535718745
268 268 1 2.0017005651674404 1.1556823601364479 2.3348309535718745
269 269 1 2.5736150123581378 0.16509748001949254 2.3348309535718745
270 270 1 3.1455294595488352 1.1556823601364479 2.3348309535718745
271 271 1 3.7174439067395322 0.16509748001949254 2.3348309535718745
272 272 1 4.2893583539302300 1.1556823601364479 2.3348309535718745
273 273 1 4.8612728011209265 0.16509748001949254 2.3348309535718745
274 274 1 5.4331872483116239 1.1556823601364479 2.3348309535718745
275 275 1 6.0051016955023213 0.16509748001949254 2.3348309535718745
276 276 1 6.5770161426930187 1.1556823601364479 2.3348309535718745
277 277 1 7.1489305898837161 0.16509748001949254 2.3348309535718745
278 278 1 7.7208450370744135 1.1556823601364479 2.3348309535718745
279 279 1 8.2927594842651100 0.16509748001949254 2.3348309535718745
280 280 1 8.8646739314558083 1.1556823601364479 2.3348309535718745
281 281 1 9.4365883786465048 0.16509748001949254 2.3348309535718745
282 282 1 10.008502825837203 1.1556823601364479 2.3348309535718745
283 283 1 10.580417273027900 0.16509748001949254 2.3348309535718745
284 284 1 11.152331720218598 1.1556823601364479 2.3348309535718745
285 285 1 11.724246167409294 0.16509748001949254 2.3348309535718745
286 286 1 12.296160614599991 1.1556823601364479 2.3348309535718745
287 287 1 0.28595722359534864 2.1462672402534029 2.3348309535718745
288 288 1 0.85787167078604587 3.1368521203703583 2.3348309535718745
289 289 1 1.4297861179767433 2.1462672402534029 2.3348309535718745
290 290 1 2.0017005651674404 3.1368521203703583 2.3348309535718745
291 291 1 2.5736150123581378 2.1462672402534029 2.3348309535718745
292 292 1 3.1455294595488352 3.1368521203703583 2.3348309535718745
293 293 1 3.7174439067395322 2.1462672402534029 2.3348309535718745
294 294 1 4.2893583539302300 3.1368521203703583 2.3348309535718745
295 295 1 4.8612728011209265 2.1462672402534029 2.3348309535718745
296 296 1 5.4331872483116239 3.1368521203703583 2.3348309535718745
297 297 1 6.0051016955023213 2.1462672402534029 2.3348309535718745
298 298 1 6.5770161426930187 3.1368521203703583 2.3348309535718745
299 299 1 7.1489305898837161 2.1462672402534029 2.3348309535718745
300 300 1 7.7208450370744135 3.1368521203703583 2.3348309535718745
301 301 1 8.2927594842651100 2.1462672402534029 2.3348309535718745
302 302 1 8.8646739314558083 3.1368521203703583 2.3348309535718745
303 303 1 9.4365883786465048 2.1462672402534029 2.3348309535718745
304 304 1 10.008502825837203 3.1368521203703583 2.3348309535718745
305 305 1 10.580417273027900 2.1462672402534029 2.3348309535718745
306 306 1 11.152331720218598 3.1368521203703583 2.3348309535718745
307 307 1 11.724246167409294 2.1462672402534029 2.3348309535718745
308 308 1 12.296160614599991 3.1368521203703583 2.3348309535718745
309 309 1 0.28595722359534864 4.1274370004873138 2.3348309535718745
310 310 1 0.85787167078604587 5.1180218806042683 2.3348309535718745
311 311 1 1.4297861179767433 4.1274370004873138 2.3348309535718745
312 312 1 2.0017005651674404 5.1180218806042683 2.3348309535718745
313 313 1 2.5736150123581378 4.1274370004873138 2.3348309535718745
314 314 1 3.1455294595488352 5.1180218806042683 2.3348309535718745
315 315 1 3.7174439067395322 4.1274370004873138 2.3348309535718745
316 316 1 4.2893583539302300 5.1180218806042683 2.3348309535718745
317 317 1 4.8612728011209265 4.1274370004873138 2.3348309535718745
318 318 1 5.4331872483116239 5.1180218806042683 2.3348309535718745
319 319 1 6.0051016955023213 4.1274370004873138 2.3348309535718745
320 320 1 6.5770161426930187 5.1180218806042683 2.3348309535718745
321 321 1 7.1489305898837161 4.1274370004873138 2.3348309535718745
322 322 1 7.7208450370744135 5.1180218806042683 2.3348309535718745
323 323 1 8.2927594842651100 4.1274370004873138 2.3348309535718745
324 324 1 8.8646739314558083 5.1180218806042683 2.3348309535718745
325 325 1 9.4365883786465048 4.1274370004873138 2.3348309535718745
326 326 1 10.008502825837203 5.1180218806042683 2.3348309535718745
327 327 1 10.580417273027900 4.1274370004873138 2.3348309535718745
328 328 1 11.152331720218598 5.1180218806042683 2.3348309535718745
329 329 1 11.724246167409294 4.1274370004873138 2.3348309535718745
330 330 1 12.296160614599991 5.1180218806042683 2.3348309535718745
331 331 1 0.28595722359534864 6.1086067607212238 2.3348309535718745
332 332 1 0.85787167078604587 7.0991916408381792 2.3348309535718745
333 333 1 1.4297861179767433 6.1086067607212238 2.3348309535718745
334 334 1 2.0017005651674404 7.0991916408381792 2.3348309535718745
335 335 1 2.5736150123581378 6.1086067607212238 2.3348309535718745
336 336 1 3.1455294595488352 7.0991916408381792 2.3348309535718745
337 337 1 3.7174439067395322 6.1086067607212238 2.3348309535718745
338 338 1 4.2893583539302300 7.0991916408381792 2.3348309535718745
339 339 1 4.8612728011209265 6.1086067607212238 2.3348309535718745
340 340 1 5.4331872483116239 7.0991916408381792 2.3348309535718745
341 341 1 6.0051016955023213 6.1086067607212238 2.3348309535718745
342 342 1 6.5770161426930187 7.0991916408381792 2.3348309535718745
343 343 1 7.1489305898837161 6.1086067607212238 2.3348309535718745
344 344 1 7.7208450370744135 7.0991916408381792 2.3348309535718745
345 345 1 8.2927594842651100 6.1086067607212238 2.3348309535718745
346 346 1 8.8646739314558083 7.0991916408381792 2.3348309535718745
347 347 1 9.4365883786465048 6.1086067607212238 2.3348309535718745
348 348 1 10.008502825837203 7.0991916408381792 2.3348309535718745
349 349 1 10.580417273027900 6.1086067607212238 2.3348309535718745
350 350 1 11.152331720218598 7.0991916408381792 2.3348309535718745
351 351 1 11.724246167409294 6.1086067607212238 2.3348309535718745
352 352 1 12.296160614599991 7.0991916408381792 2.3348309535718745
353 353 1 0.28595722359534864 8.0897765209551338 2.3348309535718745
354 354 1 0.85787167078604587 9.0803614010720892 2.3348309535718745
355 355 1 1.4297861179767433 8.0897765209551338 2.3348309535718745
356 356 1 2.0017005651674404 9.0803614010720892 2.3348309535718745
357 357 1 2.5736150123581378 8.0897765209551338 2.3348309535718745
358 358 1 3.1455294595488352 9.0803614010720892 2.3348309535718745
359 359 1 3.7174439067395322 8.0897765209551338 2.3348309535718745
360 360 1 4.2893583539302300 9.0803614010720892 2.3348309535718745
361 361 1 4.8612728011209265 8.0897765209551338 2.3348309535718745
362 362 1 5.4331872483116239 9.0803614010720892 2.3348309535718745
363 363 1 6.0051016955023213 8.0897765209551338 2.3348309535718745
364 364 1 6.5770161426930187 9.0803614010720892 2.3348309535718745
365 365 1 7.1489305898837161 8.0897765209551338 2.3348309535718745
366 366 1 7.7208450370744135 9.0803614010720892 2.3348309535718745
367 367 1 8.2927594842651100 8.0897765209551338 2.3348309535718745
368 368 1 8.8646739314558083 9.0803614010720892 2.3348309535718745
369 369 1 9.4365883786465048 8.0897765209551338 2.3348309535718745
370 370 1 10.008502825837203 9.0803614010720892 2.3348309535718745
371 371 1 10.580417273027900 8.0897765209551338 2.3348309535718745
372 372 1 11.152331720218598 9.0803614010720892 2.3348309535718745
373 373 1 11.724246167409294 8.0897765209551338 2.3348309535718745
374 374 1 12.296160614599991 9.0803614010720892 2.3348309535718745
375 375 1 0.28595722359534864 10.070946281189045 2.3348309535718745
376 376 1 0.85787167078604587 11.061531161306000 2.3348309535718745
377 377 1 1.4297861179767433 10.070946281189045 2.3348309535718745
378 378 1 2.0017005651674404 11.061531161306000 2.3348309535718745
379 379 1 2.5736150123581378 10.070946281189045 2.3348309535718745
380 380 1 3.1455294595488352 11.061531161306000 2.3348309535718745
381 381 1 3.7174439067395322 10.070946281189045 2.3348309535718745
382 382 1 4.2893583539302300 11.061531161306000 2.3348309535718745
383 383 1 4.8612728011209265 10.070946281189045 2.3348309535718745
384 384 1 5.4331872483116239 11.061531161306000 2.3348309535718745
385 385 1 6.0051016955023213 10.070946281189045 2.3348309535718745
386 386 1 6.5770161426930187 11.061531161306000 2.3348309535718745
387 387 1 7.1489305898837161 10.070946281189045 2.3348309535718745
388 388 1 7.7208450370744135 11.061531161306000 2.3348309535718745
389 389 1 8.2927594842651100 10.070946281189045 2.3348309535718745
390 390 1 8.8646739314558083 11.061531161306000 2.3348309535718745
391 391 1 9.4365883786465048 10.070946281189045 2.3348309535718745
392 392 1 10.008502825837203 11.061531161306000 2.3348309535718745
393 393 1 10.580417273027900 10.070946281189045 2.3348309535718745
394 394 1 11.152331720218598 11.061531161306000 2.3348309535718745
395 395 1 11.724246167409294 10.070946281189045 2.3348309535718745
396 396 1 12.296160614599991 11.061531161306000 2.3348309535718745
397 397 1 0.85787167078604587 0.49529244005847761 3.2687633350006244
398 398 1 0.28595722359534864 1.4858773201754327 3.2687633350006244
399 399 1 2.0017005651674404 0.49529244005847761 3.2687633350006244
400 400 1 1.4297861179767433 1.4858773201754327 3.2687633350006244
401 401 1 3.1455294595488352 0.49529244005847761 3.2687633350006244
402 402 1 2.5736150123581378 1.4858773201754327 3.2687633350006244
403 403 1 4.2893583539302300 0.49529244005847761 3.2687633350006244
404 404 1 3.7174439067395322 1.4858773201754327 3.2687633350006244
405 405 1 5.4331872483116239 0.49529244005847761 3.2687633350006244
406 406 1 4.8612728011209265 1.4858773201754327 3.2687633350006244
407 407 1 6.5770161426930187 0.49529244005847761 3.2687633350006244
408 408 1 6.0051016955023213 1.4858773201754327 3.2687633350006244
409 409 1 7.7208450370744135 0.49529244005847761 3.2687633350006244
410 410 1 7.1489305898837161 1.4858773201754327 3.2687633350006244
411 411 1 8.8646739314558083 0.49529244005847761 3.2687633350006244
412 412 1 8.2927594842651100 1.4858773201754327 3.2687633350006244
413 413 1 10.008502825837203 0.49529244005847761 3.2687633350006244
414 414 1 9.4365883786465048 1.4858773201754327 3.2687633350006244
415 415 1 11.152331720218598 0.49529244005847761 3.2687633350006244
416 416 1 10.580417273027900 1.4858773201754327 3.2687633350006244
417 417 1 12.296160614599991 0.49529244005847761 3.2687633350006244
418 418 1 11.724246167409294 1.4858773201754327 3.2687633350006244
419 419 1 0.85787167078604587 2.4764622002923882 3.2687633350006244
420 420 1 0.28595722359534864 3.4670470804093432 3.2687633350006244
421 421 1 2.0017005651674404 2.4764622002923882 3.2687633350006244
422 422 1 1.4297861179767433 3.4670470804093432 3.2687633350006244
423 423 1 3.1455294595488352 2.4764622002923882 3.2687633350006244
424 424 1 2.5736150123581378 3.4670470804093432 3.2687633350006244
425 425 1 4.2893583539302300 2.4764622002923882 3.2687633350006244
426 426 1 3.7174439067395322 3.4670470804093432 3.2687633350006244
427 427 1 5.4331872483116239 2.4764622002923882 3.2687633350006244
428 428 1 4.8612728011209265 3.4670470804093432 3.2687633350006244
429 429 1 6.5770161426930187 2.4764622002923882 3.2687633350006244
430 430 1 6.0051016955023213 3.4670470804093432 3.2687633350006244
431 431 1 7.7208450370744135 2.4764622002923882 3.2687633350006244
432 432 1 7.1489305898837161 3.4670470804093432 3.2687633350006244
433 433 1 8.8646739314558083 2.4764622002923882 3.2687633350006244
434 434 1 8.2927594842651100 3.4670470804093432 3.2687633350006244
435 435 1 10.008502825837203 2.4764622002923882 3.2687633350006244
436 436 1 9.4365883786465048 3.4670470804093432 3.2687633350006244
437 437 1 11.152331720218598 2.4764622002923882 3.2687633350006244
438 438 1 10.580417273027900 3.4670470804093432 3.2687633350006244
439 439 1 12.296160614599991 2.4764622002923882 3.2687633350006244
440 440 1 11.724246167409294 3.4670470804093432 3.2687633350006244
441 441 1 0.85787167078604587 4.4576319605262986 3.2687633350006244
442 442 1 0.28595722359534864 5.4482168406432541 3.2687633350006244
443 443 1 2.0017005651674404 4.4576319605262986 3.2687633350006244
444 444 1 1.4297861179767433 5.4482168406432541 3.2687633350006244