LAMMPS (2 Aug 2023)
Reading data file ...
  orthogonal box = (0 0 0) to (5.5112433 5.7274521 16.199681)
  1 by 1 by 4 MPI processor grid
  reading atoms ...
  540 atoms
  read_data CPU = 0.005 seconds
Wall Position 1.14
Generated 0 of 1 mixed pair_coeff terms from geometric mixing rule
Neighbor list info ...
  update: every = 1 steps, delay = 0 steps, check = yes
  max neighbors/atom: 2000, page size: 100000
  master list distance cutoff = 2.8
  ghost atom cutoff = 2.8
  binsize = 1.4, bins = 4 5 12
  1 neighbor lists, perpetual/occasional/extra = 1 0 0
  (1) pair lj/BG, perpetual
      attributes: half, newton on
      pair build: half/bin/atomonly/newton
      stencil: half/bin/3d
      bin: standard
Setting up Verlet run ...
  Unit style    : lj
  Current step  : 0
  Time step     : 0.005
Per MPI rank memory allocation (min/avg/max) = 2.999 | 3.003 | 3.007 Mbytes
   Step          Temp          E_pair         E_mol          TotEng         Press     
         0   0             -7.4462657      0             -7.4462657     -0.96166809   
Loop time of 2.32275e-06 on 4 procs for 0 steps with 540 atoms

86.1% CPU use with 4 MPI tasks x no OpenMP threads

MPI task timing breakdown:
Section |  min time  |  avg time  |  max time  |%varavg| %total
---------------------------------------------------------------
Pair    | 0          | 0          | 0          |   0.0 |  0.00
Neigh   | 0          | 0          | 0          |   0.0 |  0.00
Comm    | 0          | 0          | 0          |   0.0 |  0.00
Output  | 0          | 0          | 0          |   0.0 |  0.00
Modify  | 0          | 0          | 0          |   0.0 |  0.00
Other   |            | 2.323e-06  |            |       |100.00

Nlocal:            135 ave         150 max         120 min
Histogram: 2 0 0 0 0 0 0 0 0 2
Nghost:           1185 ave        1200 max        1170 min
Histogram: 2 0 0 0 0 0 0 0 0 2
Neighs:           5805 ave        6450 max        4872 min
Histogram: 1 0 0 1 0 0 0 0 0 2

Total # of neighbors = 23220
Ave neighs/atom = 43
Neighbor list builds = 0
Dangerous builds = 0
Generated 0 of 1 mixed pair_coeff terms from geometric mixing rule
Setting up Verlet run ...
  Unit style    : lj
  Current step  : 0
  Time step     : 0.005
Per MPI rank memory allocation (min/avg/max) = 2.999 | 3.003 | 3.007 Mbytes
   Step          Temp          E_pair         E_mol          TotEng         Press     
         0   0             -7.4462657      0             -7.4462657     -0.96166809   
      1000   0.66185421    -6.5820942      0             -5.5911513      4.6555835    
Loop time of 0.129294 on 4 procs for 1000 steps with 540 atoms

Performance: 3341220.715 tau/day, 7734.307 timesteps/s, 4.177 Matom-step/s
99.9% CPU use with 4 MPI tasks x no OpenMP threads

MPI task timing breakdown:
Section |  min time  |  avg time  |  max time  |%varavg| %total
---------------------------------------------------------------
Pair    | 0.046362   | 0.053342   | 0.058395   |   2.1 | 41.26
Neigh   | 0.0028982  | 0.0029814  | 0.0030748  |   0.1 |  2.31
Comm    | 0.016211   | 0.021122   | 0.027913   |   3.2 | 16.34
Output  | 1.175e-05  | 4.3406e-05 | 5.4e-05    |   0.0 |  0.03
Modify  | 0.05006    | 0.050158   | 0.050243   |   0.0 | 38.79
Other   |            | 0.001647   |            |       |  1.27

Nlocal:            135 ave         144 max         126 min
Histogram: 1 0 0 1 0 0 1 0 0 1
Nghost:           1176 ave        1190 max        1169 min
Histogram: 2 0 1 0 0 0 0 0 0 1
Neighs:        5935.75 ave        6559 max        5649 min
Histogram: 1 2 0 0 0 0 0 0 0 1

Total # of neighbors = 23743
Ave neighs/atom = 43.968519
Neighbor list builds = 21
Dangerous builds = 0
Wall Position 1.12
Generated 0 of 1 mixed pair_coeff terms from geometric mixing rule
Setting up Verlet run ...
  Unit style    : lj
  Current step  : 1000
  Time step     : 0.005
Per MPI rank memory allocation (min/avg/max) = 2.999 | 3.003 | 3.007 Mbytes
   Step          Temp          E_pair         E_mol          TotEng         Press     
      1000   0.66185421    -6.5820942      0             -5.5911513      4.6555835    
Loop time of 1.2085e-06 on 4 procs for 0 steps with 540 atoms

103.4% CPU use with 4 MPI tasks x no OpenMP threads

MPI task timing breakdown:
Section |  min time  |  avg time  |  max time  |%varavg| %total
---------------------------------------------------------------
Pair    | 0          | 0          | 0          |   0.0 |  0.00
Neigh   | 0          | 0          | 0          |   0.0 |  0.00
Comm    | 0          | 0          | 0          |   0.0 |  0.00
Output  | 0          | 0          | 0          |   0.0 |  0.00
Modify  | 0          | 0          | 0          |   0.0 |  0.00
Other   |            | 1.209e-06  |            |       |100.00

Nlocal:            135 ave         141 max         129 min
Histogram: 1 1 0 0 0 0 0 0 1 1
Nghost:           1182 ave        1189 max        1171 min
Histogram: 1 0 0 0 0 1 0 0 1 1
Neighs:         5942.5 ave        6290 max        5452 min
Histogram: 1 0 0 0 0 1 0 1 0 1

Total # of neighbors = 23770
Ave neighs/atom = 44.018519
Neighbor list builds = 0
Dangerous builds = 0
Generated 0 of 1 mixed pair_coeff terms from geometric mixing rule
Setting up Verlet run ...
  Unit style    : lj
  Current step  : 1000
  Time step     : 0.005
Per MPI rank memory allocation (min/avg/max) = 2.999 | 3.003 | 3.007 Mbytes
   Step          Temp          E_pair         E_mol          TotEng         Press     
      1000   0.66185421    -6.5820942      0             -5.5911513      4.6555835    
      2000   0.61206079    -6.5692902      0             -5.6528992      4.6285957    
Loop time of 0.149436 on 4 procs for 1000 steps with 540 atoms

Performance: 2890869.061 tau/day, 6691.827 timesteps/s, 3.614 Matom-step/s
99.7% CPU use with 4 MPI tasks x no OpenMP threads

MPI task timing breakdown:
Section |  min time  |  avg time  |  max time  |%varavg| %total
---------------------------------------------------------------
Pair    | 0.063378   | 0.065356   | 0.067419   |   0.7 | 43.74
Neigh   | 0.013312   | 0.013526   | 0.013703   |   0.1 |  9.05
Comm    | 0.019123   | 0.021318   | 0.023483   |   1.3 | 14.27
Output  | 1.075e-05  | 3.5677e-05 | 4.4208e-05 |   0.0 |  0.02
Modify  | 0.047581   | 0.047646   | 0.04772    |   0.0 | 31.88
Other   |            | 0.001554   |            |       |  1.04

Nlocal:            135 ave         140 max         130 min
Histogram: 1 0 0 0 1 0 1 0 0 1
Nghost:         1173.5 ave        1184 max        1164 min
Histogram: 1 0 0 1 0 0 1 0 0 1
Neighs:         5950.5 ave        6130 max        5562 min
Histogram: 1 0 0 0 0 0 0 0 2 1

Total # of neighbors = 23802
Ave neighs/atom = 44.077778
Neighbor list builds = 94
Dangerous builds = 0
Wall Position 1.1
Generated 0 of 1 mixed pair_coeff terms from geometric mixing rule
Setting up Verlet run ...
  Unit style    : lj
  Current step  : 2000
  Time step     : 0.005
Per MPI rank memory allocation (min/avg/max) = 2.999 | 3.003 | 3.007 Mbytes
   Step          Temp          E_pair         E_mol          TotEng         Press     
      2000   0.61206079    -6.5692902      0             -5.6528992      4.6285957    
Loop time of 1.29175e-06 on 4 procs for 0 steps with 540 atoms

77.4% CPU use with 4 MPI tasks x no OpenMP threads

MPI task timing breakdown:
Section |  min time  |  avg time  |  max time  |%varavg| %total
---------------------------------------------------------------
Pair    | 0          | 0          | 0          |   0.0 |  0.00
Neigh   | 0          | 0          | 0          |   0.0 |  0.00
Comm    | 0          | 0          | 0          |   0.0 |  0.00
Output  | 0          | 0          | 0          |   0.0 |  0.00
Modify  | 0          | 0          | 0          |   0.0 |  0.00
Other   |            | 1.292e-06  |            |       |100.00

Nlocal:            135 ave         140 max         130 min
Histogram: 1 0 0 0 0 2 0 0 0 1
Nghost:         1177.5 ave        1188 max        1163 min
Histogram: 1 0 0 0 0 0 2 0 0 1
Neighs:        5931.75 ave        6137 max        5500 min
Histogram: 1 0 0 0 0 0 0 0 1 2

Total # of neighbors = 23727
Ave neighs/atom = 43.938889
Neighbor list builds = 0
Dangerous builds = 0
Generated 0 of 1 mixed pair_coeff terms from geometric mixing rule
Setting up Verlet run ...
  Unit style    : lj
  Current step  : 2000
  Time step     : 0.005
Per MPI rank memory allocation (min/avg/max) = 2.999 | 3.003 | 3.007 Mbytes
   Step          Temp          E_pair         E_mol          TotEng         Press     
      2000   0.61206079    -6.5692902      0             -5.6528992      4.6285957    
      3000   0.63223421    -6.6243924      0             -5.6777973      4.3378921    
Loop time of 0.150269 on 4 procs for 1000 steps with 540 atoms

Performance: 2874837.477 tau/day, 6654.716 timesteps/s, 3.594 Matom-step/s
99.7% CPU use with 4 MPI tasks x no OpenMP threads

MPI task timing breakdown:
Section |  min time  |  avg time  |  max time  |%varavg| %total
---------------------------------------------------------------
Pair    | 0.063622   | 0.06574    | 0.067571   |   0.7 | 43.75
Neigh   | 0.013576   | 0.01382    | 0.014056   |   0.2 |  9.20
Comm    | 0.019028   | 0.020871   | 0.023147   |   1.3 | 13.89
Output  | 1.1334e-05 | 3.8479e-05 | 4.7666e-05 |   0.0 |  0.03
Modify  | 0.048005   | 0.048167   | 0.048379   |   0.1 | 32.05
Other   |            | 0.001633   |            |       |  1.09

Nlocal:            135 ave         137 max         133 min
Histogram: 1 0 1 0 0 0 0 1 0 1
Nghost:         1179.5 ave        1183 max        1176 min
Histogram: 1 0 1 0 0 0 0 1 0 1
Neighs:        5937.75 ave        6127 max        5689 min
Histogram: 1 0 0 0 0 1 0 1 0 1

Total # of neighbors = 23751
Ave neighs/atom = 43.983333
Neighbor list builds = 95
Dangerous builds = 0
Wall Position 1.08
Generated 0 of 1 mixed pair_coeff terms from geometric mixing rule
Setting up Verlet run ...
  Unit style    : lj
  Current step  : 3000
  Time step     : 0.005
Per MPI rank memory allocation (min/avg/max) = 2.999 | 3.003 | 3.007 Mbytes
   Step          Temp          E_pair         E_mol          TotEng         Press     
      3000   0.63223421    -6.6243924      0             -5.6777973      4.3378921    
Loop time of 9.375e-07 on 4 procs for 0 steps with 540 atoms

26.7% CPU use with 4 MPI tasks x no OpenMP threads

MPI task timing breakdown:
Section |  min time  |  avg time  |  max time  |%varavg| %total
---------------------------------------------------------------
Pair    | 0          | 0          | 0          |   0.0 |  0.00
Neigh   | 0          | 0          | 0          |   0.0 |  0.00
Comm    | 0          | 0          | 0          |   0.0 |  0.00
Output  | 0          | 0          | 0          |   0.0 |  0.00
Modify  | 0          | 0          | 0          |   0.0 |  0.00
Other   |            | 9.375e-07  |            |       |100.00

Nlocal:            135 ave         136 max         134 min
Histogram: 2 0 0 0 0 0 0 0 0 2
Nghost:           1180 ave        1184 max        1176 min
Histogram: 1 0 1 0 0 0 0 1 0 1
Neighs:        5937.25 ave        6119 max        5744 min
Histogram: 1 0 0 1 0 0 1 0 0 1

Total # of neighbors = 23749
Ave neighs/atom = 43.97963
Neighbor list builds = 0
Dangerous builds = 0
Generated 0 of 1 mixed pair_coeff terms from geometric mixing rule
Setting up Verlet run ...
  Unit style    : lj
  Current step  : 3000
  Time step     : 0.005
Per MPI rank memory allocation (min/avg/max) = 2.999 | 3.003 | 3.007 Mbytes
   Step          Temp          E_pair         E_mol          TotEng         Press     
      3000   0.63223421    -6.6243924      0             -5.6777973      4.3378921    
      4000   0.63204149    -6.5586373      0             -5.6123307      4.6865708    
Loop time of 0.150109 on 4 procs for 1000 steps with 540 atoms

Performance: 2877904.924 tau/day, 6661.817 timesteps/s, 3.597 Matom-step/s
99.8% CPU use with 4 MPI tasks x no OpenMP threads

MPI task timing breakdown:
Section |  min time  |  avg time  |  max time  |%varavg| %total
---------------------------------------------------------------
Pair    | 0.063628   | 0.065617   | 0.067539   |   0.7 | 43.71
Neigh   | 0.013841   | 0.014054   | 0.014283   |   0.2 |  9.36
Comm    | 0.018415   | 0.020366   | 0.022566   |   1.3 | 13.57
Output  | 1.0042e-05 | 3.1187e-05 | 3.8333e-05 |   0.0 |  0.02
Modify  | 0.048301   | 0.048398   | 0.048546   |   0.0 | 32.24
Other   |            | 0.001643   |            |       |  1.09

Nlocal:            135 ave         141 max         129 min
Histogram: 2 0 0 0 0 0 0 0 0 2
Nghost:         1175.5 ave        1187 max        1166 min
Histogram: 1 1 0 0 0 0 1 0 0 1
Neighs:        5958.75 ave        6312 max        5546 min
Histogram: 1 0 0 0 1 0 1 0 0 1

Total # of neighbors = 23835
Ave neighs/atom = 44.138889
Neighbor list builds = 97
Dangerous builds = 0
Wall Position 1.06
Generated 0 of 1 mixed pair_coeff terms from geometric mixing rule
Setting up Verlet run ...
  Unit style    : lj
  Current step  : 4000
  Time step     : 0.005
Per MPI rank memory allocation (min/avg/max) = 2.999 | 3.003 | 3.007 Mbytes
   Step          Temp          E_pair         E_mol          TotEng         Press     
      4000   0.63204149    -6.5586373      0             -5.6123307      4.6865708    
Loop time of 1.18775e-06 on 4 procs for 0 steps with 540 atoms

84.2% CPU use with 4 MPI tasks x no OpenMP threads

MPI task timing breakdown:
Section |  min time  |  avg time  |  max time  |%varavg| %total
---------------------------------------------------------------
Pair    | 0          | 0          | 0          |   0.0 |  0.00
Neigh   | 0          | 0          | 0          |   0.0 |  0.00
Comm    | 0          | 0          | 0          |   0.0 |  0.00
Output  | 0          | 0          | 0          |   0.0 |  0.00
Modify  | 0          | 0          | 0          |   0.0 |  0.00
Other   |            | 1.188e-06  |            |       |100.00

Nlocal:            135 ave         141 max         129 min
Histogram: 2 0 0 0 0 0 0 0 0 2
Nghost:         1170.5 ave        1180 max        1157 min
Histogram: 1 0 0 0 0 1 0 1 0 1
Neighs:        5959.25 ave        6284 max        5467 min
Histogram: 1 0 0 0 0 0 1 0 1 1

Total # of neighbors = 23837
Ave neighs/atom = 44.142593
Neighbor list builds = 0
Dangerous builds = 0
Generated 0 of 1 mixed pair_coeff terms from geometric mixing rule
Setting up Verlet run ...
  Unit style    : lj
  Current step  : 4000
  Time step     : 0.005
Per MPI rank memory allocation (min/avg/max) = 2.999 | 3.003 | 3.007 Mbytes
   Step          Temp          E_pair         E_mol          TotEng         Press     
      4000   0.63204149    -6.5586373      0             -5.6123307      4.6865708    
      5000   0.60709921    -6.540023       0             -5.6310606      4.7844252    
Loop time of 0.150041 on 4 procs for 1000 steps with 540 atoms

Performance: 2879212.617 tau/day, 6664.844 timesteps/s, 3.599 Matom-step/s
99.8% CPU use with 4 MPI tasks x no OpenMP threads

MPI task timing breakdown:
Section |  min time  |  avg time  |  max time  |%varavg| %total
---------------------------------------------------------------
Pair    | 0.063347   | 0.065658   | 0.06751    |   0.7 | 43.76
Neigh   | 0.013598   | 0.013809   | 0.014102   |   0.2 |  9.20
Comm    | 0.017811   | 0.020039   | 0.022416   |   1.4 | 13.36
Output  | 1.55e-05   | 4.0948e-05 | 4.9542e-05 |   0.0 |  0.03
Modify  | 0.048699   | 0.04886    | 0.049001   |   0.1 | 32.56
Other   |            | 0.001634   |            |       |  1.09

Nlocal:            135 ave         138 max         132 min
Histogram: 1 1 0 0 0 0 0 0 1 1
Nghost:         1176.5 ave        1186 max        1171 min
Histogram: 1 1 0 1 0 0 0 0 0 1
Neighs:           5978 ave        6181 max        5660 min
Histogram: 1 0 0 0 0 0 1 0 1 1

Total # of neighbors = 23912
Ave neighs/atom = 44.281481
Neighbor list builds = 95
Dangerous builds = 0
Wall Position 1.04
Generated 0 of 1 mixed pair_coeff terms from geometric mixing rule
Setting up Verlet run ...
  Unit style    : lj
  Current step  : 5000
  Time step     : 0.005
Per MPI rank memory allocation (min/avg/max) = 2.999 | 3.003 | 3.007 Mbytes
   Step          Temp          E_pair         E_mol          TotEng         Press     
      5000   0.60709921    -6.540023       0             -5.6310606      4.7844252    
Loop time of 9.6875e-07 on 4 procs for 0 steps with 540 atoms

103.2% CPU use with 4 MPI tasks x no OpenMP threads

MPI task timing breakdown:
Section |  min time  |  avg time  |  max time  |%varavg| %total
---------------------------------------------------------------
Pair    | 0          | 0          | 0          |   0.0 |  0.00
Neigh   | 0          | 0          | 0          |   0.0 |  0.00
Comm    | 0          | 0          | 0          |   0.0 |  0.00
Output  | 0          | 0          | 0          |   0.0 |  0.00
Modify  | 0          | 0          | 0          |   0.0 |  0.00
Other   |            | 9.687e-07  |            |       |100.00

Nlocal:            135 ave         135 max         135 min
Histogram: 4 0 0 0 0 0 0 0 0 0
Nghost:           1173 ave        1181 max        1167 min
Histogram: 1 1 0 0 0 1 0 0 0 1
Neighs:         5976.5 ave        6097 max        5832 min
Histogram: 1 0 0 1 0 0 0 0 1 1

Total # of neighbors = 23906
Ave neighs/atom = 44.27037
Neighbor list builds = 0
Dangerous builds = 0
Generated 0 of 1 mixed pair_coeff terms from geometric mixing rule
Setting up Verlet run ...
  Unit style    : lj
  Current step  : 5000
  Time step     : 0.005
Per MPI rank memory allocation (min/avg/max) = 2.999 | 3.003 | 3.007 Mbytes
   Step          Temp          E_pair         E_mol          TotEng         Press     
      5000   0.60709921    -6.540023       0             -5.6310606      4.7844252    
      6000   0.59232372    -6.661554       0             -5.7747137      4.0949275    
Loop time of 0.173761 on 4 procs for 1000 steps with 540 atoms

Performance: 2486171.895 tau/day, 5755.028 timesteps/s, 3.108 Matom-step/s
97.3% CPU use with 4 MPI tasks x no OpenMP threads

MPI task timing breakdown:
Section |  min time  |  avg time  |  max time  |%varavg| %total
---------------------------------------------------------------
Pair    | 0.066112   | 0.069066   | 0.072025   |   0.9 | 39.75
Neigh   | 0.014339   | 0.014533   | 0.014826   |   0.1 |  8.36
Comm    | 0.026201   | 0.028934   | 0.032255   |   1.5 | 16.65
Output  | 1.25e-05   | 3.8781e-05 | 4.7917e-05 |   0.0 |  0.02
Modify  | 0.058577   | 0.058895   | 0.059295   |   0.1 | 33.89
Other   |            | 0.002294   |            |       |  1.32

Nlocal:            135 ave         137 max         133 min
Histogram: 2 0 0 0 0 0 0 0 0 2
Nghost:           1178 ave        1187 max        1173 min
Histogram: 1 1 1 0 0 0 0 0 0 1
Neighs:         5931.5 ave        6170 max        5638 min
Histogram: 1 0 0 0 0 1 1 0 0 1

Total # of neighbors = 23726
Ave neighs/atom = 43.937037
Neighbor list builds = 95
Dangerous builds = 0
Wall Position 1.02
Generated 0 of 1 mixed pair_coeff terms from geometric mixing rule
Setting up Verlet run ...
  Unit style    : lj
  Current step  : 6000
  Time step     : 0.005
Per MPI rank memory allocation (min/avg/max) = 2.999 | 3.003 | 3.007 Mbytes
   Step          Temp          E_pair         E_mol          TotEng         Press     
      6000   0.59232372    -6.661554       0             -5.7747137      4.0949275    
Loop time of 8.8525e-07 on 4 procs for 0 steps with 540 atoms

56.5% CPU use with 4 MPI tasks x no OpenMP threads

MPI task timing breakdown:
Section |  min time  |  avg time  |  max time  |%varavg| %total
---------------------------------------------------------------
Pair    | 0          | 0          | 0          |   0.0 |  0.00
Neigh   | 0          | 0          | 0          |   0.0 |  0.00
Comm    | 0          | 0          | 0          |   0.0 |  0.00
Output  | 0          | 0          | 0          |   0.0 |  0.00
Modify  | 0          | 0          | 0          |   0.0 |  0.00
Other   |            | 8.852e-07  |            |       |100.00

Nlocal:            135 ave         137 max         133 min
Histogram: 2 0 0 0 0 0 0 0 0 2
Nghost:           1179 ave        1187 max        1167 min
Histogram: 1 0 0 0 0 0 1 0 1 1
Neighs:           5924 ave        6154 max        5727 min
Histogram: 1 0 1 0 0 0 1 0 0 1

Total # of neighbors = 23696
Ave neighs/atom = 43.881481
Neighbor list builds = 0
Dangerous builds = 0
Generated 0 of 1 mixed pair_coeff terms from geometric mixing rule
Setting up Verlet run ...
  Unit style    : lj
  Current step  : 6000
  Time step     : 0.005
Per MPI rank memory allocation (min/avg/max) = 2.999 | 3.003 | 3.007 Mbytes
   Step          Temp          E_pair         E_mol          TotEng         Press     
      6000   0.59232372    -6.661554       0             -5.7747137      4.0949275    
      7000   0.59031713    -6.5751179      0             -5.691282       4.5773293    
Loop time of 0.153937 on 4 procs for 1000 steps with 540 atoms

Performance: 2806339.436 tau/day, 6496.156 timesteps/s, 3.508 Matom-step/s
99.6% CPU use with 4 MPI tasks x no OpenMP threads

MPI task timing breakdown:
Section |  min time  |  avg time  |  max time  |%varavg| %total
---------------------------------------------------------------
Pair    | 0.064509   | 0.066739   | 0.069277   |   0.8 | 43.35
Neigh   | 0.013867   | 0.014175   | 0.014521   |   0.3 |  9.21
Comm    | 0.017631   | 0.020431   | 0.022807   |   1.6 | 13.27
Output  | 1.2083e-05 | 3.9802e-05 | 4.9167e-05 |   0.0 |  0.03
Modify  | 0.050789   | 0.050898   | 0.051027   |   0.0 | 33.06
Other   |            | 0.001655   |            |       |  1.08

Nlocal:            135 ave         138 max         132 min
Histogram: 1 1 0 0 0 0 0 0 1 1
Nghost:           1174 ave        1180 max        1165 min
Histogram: 1 0 0 0 0 0 1 0 1 1
Neighs:        5948.75 ave        6200 max        5632 min
Histogram: 1 0 0 0 0 1 1 0 0 1

Total # of neighbors = 23795
Ave neighs/atom = 44.064815
Neighbor list builds = 95
Dangerous builds = 0
Wall Position 1
Generated 0 of 1 mixed pair_coeff terms from geometric mixing rule
Setting up Verlet run ...
  Unit style    : lj
  Current step  : 7000
  Time step     : 0.005
Per MPI rank memory allocation (min/avg/max) = 2.999 | 3.003 | 3.007 Mbytes
   Step          Temp          E_pair         E_mol          TotEng         Press     
      7000   0.59031713    -6.5751179      0             -5.691282       4.5773293    
Loop time of 1e-06 on 4 procs for 0 steps with 540 atoms

75.0% CPU use with 4 MPI tasks x no OpenMP threads

MPI task timing breakdown:
Section |  min time  |  avg time  |  max time  |%varavg| %total
---------------------------------------------------------------
Pair    | 0          | 0          | 0          |   0.0 |  0.00
Neigh   | 0          | 0          | 0          |   0.0 |  0.00
Comm    | 0          | 0          | 0          |   0.0 |  0.00
Output  | 0          | 0          | 0          |   0.0 |  0.00
Modify  | 0          | 0          | 0          |   0.0 |  0.00
Other   |            | 1e-06      |            |       |100.00

Nlocal:            135 ave         138 max         132 min
Histogram: 1 1 0 0 0 0 0 0 1 1
Nghost:           1175 ave        1185 max        1163 min
Histogram: 1 0 0 0 1 0 0 1 0 1
Neighs:           5956 ave        6181 max        5641 min
Histogram: 1 0 0 0 0 0 1 1 0 1

Total # of neighbors = 23824
Ave neighs/atom = 44.118519
Neighbor list builds = 0
Dangerous builds = 0
Generated 0 of 1 mixed pair_coeff terms from geometric mixing rule
Setting up Verlet run ...
  Unit style    : lj
  Current step  : 7000
  Time step     : 0.005
Per MPI rank memory allocation (min/avg/max) = 2.999 | 3.003 | 3.007 Mbytes
   Step          Temp          E_pair         E_mol          TotEng         Press     
      7000   0.59031713    -6.5751179      0             -5.691282       4.5773293    
      8000   0.5977304     -6.5953481      0             -5.7004128      4.4337841    
Loop time of 0.149537 on 4 procs for 1000 steps with 540 atoms

Performance: 2888914.106 tau/day, 6687.301 timesteps/s, 3.611 Matom-step/s
99.9% CPU use with 4 MPI tasks x no OpenMP threads

MPI task timing breakdown:
Section |  min time  |  avg time  |  max time  |%varavg| %total
---------------------------------------------------------------
Pair    | 0.063399   | 0.065825   | 0.068197   |   0.8 | 44.02
Neigh   | 0.013707   | 0.013983   | 0.014351   |   0.2 |  9.35
Comm    | 0.016443   | 0.01892    | 0.021352   |   1.6 | 12.65
Output  | 9.167e-06  | 3.0136e-05 | 3.725e-05  |   0.0 |  0.02
Modify  | 0.048938   | 0.04917    | 0.049425   |   0.1 | 32.88
Other   |            | 0.001609   |            |       |  1.08

Nlocal:            135 ave         137 max         133 min
Histogram: 1 0 1 0 0 0 0 1 0 1
Nghost:         1177.5 ave        1181 max        1174 min
Histogram: 1 0 1 0 0 0 0 1 0 1
Neighs:        5946.25 ave        6088 max        5714 min
Histogram: 1 0 0 0 1 0 0 0 0 2

Total # of neighbors = 23785
Ave neighs/atom = 44.046296
Neighbor list builds = 96
Dangerous builds = 0
Wall Position 0.98
Generated 0 of 1 mixed pair_coeff terms from geometric mixing rule
Setting up Verlet run ...
  Unit style    : lj
  Current step  : 8000
  Time step     : 0.005
Per MPI rank memory allocation (min/avg/max) = 2.999 | 3.003 | 3.007 Mbytes
   Step          Temp          E_pair         E_mol          TotEng         Press     
      8000   0.5977304     -6.5953481      0             -5.7004128      4.4337841    
Loop time of 1e-06 on 4 procs for 0 steps with 540 atoms

100.0% CPU use with 4 MPI tasks x no OpenMP threads

MPI task timing breakdown:
Section |  min time  |  avg time  |  max time  |%varavg| %total
---------------------------------------------------------------
Pair    | 0          | 0          | 0          |   0.0 |  0.00
Neigh   | 0          | 0          | 0          |   0.0 |  0.00
Comm    | 0          | 0          | 0          |   0.0 |  0.00
Output  | 0          | 0          | 0          |   0.0 |  0.00
Modify  | 0          | 0          | 0          |   0.0 |  0.00
Other   |            | 1e-06      |            |       |100.00

Nlocal:            135 ave         137 max         133 min
Histogram: 2 0 0 0 0 0 0 0 0 2
Nghost:           1176 ave        1179 max        1173 min
Histogram: 1 0 0 1 0 0 1 0 0 1
Neighs:        5942.25 ave        6128 max        5715 min
Histogram: 1 0 0 0 1 0 0 1 0 1

Total # of neighbors = 23769
Ave neighs/atom = 44.016667
Neighbor list builds = 0
Dangerous builds = 0
Generated 0 of 1 mixed pair_coeff terms from geometric mixing rule
Setting up Verlet run ...
  Unit style    : lj
  Current step  : 8000
  Time step     : 0.005
Per MPI rank memory allocation (min/avg/max) = 2.999 | 3.003 | 3.007 Mbytes
   Step          Temp          E_pair         E_mol          TotEng         Press     
      8000   0.5977304     -6.5953481      0             -5.7004128      4.4337841    
      9000   0.56854389    -6.5801169      0             -5.7288804      4.5182857    
Loop time of 0.150055 on 4 procs for 1000 steps with 540 atoms

Performance: 2878937.993 tau/day, 6664.208 timesteps/s, 3.599 Matom-step/s
99.8% CPU use with 4 MPI tasks x no OpenMP threads

MPI task timing breakdown:
Section |  min time  |  avg time  |  max time  |%varavg| %total
---------------------------------------------------------------
Pair    | 0.063695   | 0.066152   | 0.068463   |   0.8 | 44.09
Neigh   | 0.013618   | 0.013935   | 0.014194   |   0.2 |  9.29
Comm    | 0.016329   | 0.018909   | 0.021644   |   1.7 | 12.60
Output  | 9.833e-06  | 2.7094e-05 | 3.2917e-05 |   0.0 |  0.02
Modify  | 0.049305   | 0.049428   | 0.049492   |   0.0 | 32.94
Other   |            | 0.001604   |            |       |  1.07

Nlocal:            135 ave         137 max         133 min
Histogram: 2 0 0 0 0 0 0 0 0 2
Nghost:         1177.5 ave        1179 max        1175 min
Histogram: 1 0 0 0 0 1 0 0 0 2
Neighs:        5940.25 ave        6120 max        5711 min
Histogram: 1 0 0 1 0 0 0 0 0 2

Total # of neighbors = 23761
Ave neighs/atom = 44.001852
Neighbor list builds = 95
Dangerous builds = 0
Wall Position 0.96
Generated 0 of 1 mixed pair_coeff terms from geometric mixing rule
Setting up Verlet run ...
  Unit style    : lj
  Current step  : 9000
  Time step     : 0.005
Per MPI rank memory allocation (min/avg/max) = 2.999 | 3.003 | 3.007 Mbytes
   Step          Temp          E_pair         E_mol          TotEng         Press     
      9000   0.56854389    -6.5801169      0             -5.7288804      4.5182857    
Loop time of 1.14575e-06 on 4 procs for 0 steps with 540 atoms

87.3% CPU use with 4 MPI tasks x no OpenMP threads

MPI task timing breakdown:
Section |  min time  |  avg time  |  max time  |%varavg| %total
---------------------------------------------------------------
Pair    | 0          | 0          | 0          |   0.0 |  0.00
Neigh   | 0          | 0          | 0          |   0.0 |  0.00
Comm    | 0          | 0          | 0          |   0.0 |  0.00
Output  | 0          | 0          | 0          |   0.0 |  0.00
Modify  | 0          | 0          | 0          |   0.0 |  0.00
Other   |            | 1.146e-06  |            |       |100.00

Nlocal:            135 ave         140 max         130 min
Histogram: 1 0 0 1 0 0 0 1 0 1
Nghost:         1174.5 ave        1180 max        1168 min
Histogram: 1 0 0 0 0 2 0 0 0 1
Neighs:           5939 ave        6119 max        5557 min
Histogram: 1 0 0 0 0 0 0 0 2 1

Total # of neighbors = 23756
Ave neighs/atom = 43.992593
Neighbor list builds = 0
Dangerous builds = 0
Generated 0 of 1 mixed pair_coeff terms from geometric mixing rule
Setting up Verlet run ...
  Unit style    : lj
  Current step  : 9000
  Time step     : 0.005
Per MPI rank memory allocation (min/avg/max) = 2.999 | 3.003 | 3.007 Mbytes
   Step          Temp          E_pair         E_mol          TotEng         Press     
      9000   0.56854389    -6.5801169      0             -5.7288804      4.5182857    
     10000   0.64783087    -6.5822656      0             -5.6123188      4.5913614    
Loop time of 0.150366 on 4 procs for 1000 steps with 540 atoms

Performance: 2872984.335 tau/day, 6650.427 timesteps/s, 3.591 Matom-step/s
99.8% CPU use with 4 MPI tasks x no OpenMP threads

MPI task timing breakdown:
Section |  min time  |  avg time  |  max time  |%varavg| %total
---------------------------------------------------------------
Pair    | 0.063856   | 0.065851   | 0.068023   |   0.8 | 43.79
Neigh   | 0.013516   | 0.01387    | 0.014046   |   0.2 |  9.22
Comm    | 0.01805    | 0.020169   | 0.022196   |   1.3 | 13.41
Output  | 1.2791e-05 | 4.327e-05  | 5.35e-05   |   0.0 |  0.03
Modify  | 0.048573   | 0.048767   | 0.049048   |   0.1 | 32.43
Other   |            | 0.001666   |            |       |  1.11

Nlocal:            135 ave         143 max         127 min
Histogram: 1 0 0 0 1 1 0 0 0 1
Nghost:           1172 ave        1185 max        1156 min
Histogram: 1 0 0 1 0 0 0 0 1 1
Neighs:        5954.75 ave        6421 max        5753 min
Histogram: 1 2 0 0 0 0 0 0 0 1

Total # of neighbors = 23819
Ave neighs/atom = 44.109259
Neighbor list builds = 94
Dangerous builds = 0
Wall Position 0.94
Generated 0 of 1 mixed pair_coeff terms from geometric mixing rule
Setting up Verlet run ...
  Unit style    : lj
  Current step  : 10000
  Time step     : 0.005
Per MPI rank memory allocation (min/avg/max) = 2.999 | 3.003 | 3.007 Mbytes
   Step          Temp          E_pair         E_mol          TotEng         Press     
     10000   0.64783087    -6.5822656      0             -5.6123188      4.5913614    
Loop time of 1.219e-06 on 4 procs for 0 steps with 540 atoms

102.5% CPU use with 4 MPI tasks x no OpenMP threads

MPI task timing breakdown:
Section |  min time  |  avg time  |  max time  |%varavg| %total
---------------------------------------------------------------
Pair    | 0          | 0          | 0          |   0.0 |  0.00
Neigh   | 0          | 0          | 0          |   0.0 |  0.00
Comm    | 0          | 0          | 0          |   0.0 |  0.00
Output  | 0          | 0          | 0          |   0.0 |  0.00
Modify  | 0          | 0          | 0          |   0.0 |  0.00
Other   |            | 1.219e-06  |            |       |100.00

Nlocal:            135 ave         142 max         128 min
Histogram: 1 0 1 0 0 0 0 1 0 1
Nghost:           1174 ave        1186 max        1158 min
Histogram: 1 0 0 0 1 0 0 0 1 1
Neighs:        5952.25 ave        6390 max        5649 min
Histogram: 1 0 1 1 0 0 0 0 0 1

Total # of neighbors = 23809
Ave neighs/atom = 44.090741
Neighbor list builds = 0
Dangerous builds = 0
Generated 0 of 1 mixed pair_coeff terms from geometric mixing rule
Setting up Verlet run ...
  Unit style    : lj
  Current step  : 10000
  Time step     : 0.005
Per MPI rank memory allocation (min/avg/max) = 2.999 | 3.003 | 3.007 Mbytes
   Step          Temp          E_pair         E_mol          TotEng         Press     
     10000   0.64783087    -6.5822656      0             -5.6123188      4.5913614    
     11000   0.62484303    -6.6091533      0             -5.6736244      4.4065106    
Loop time of 0.148257 on 4 procs for 1000 steps with 540 atoms

Performance: 2913849.628 tau/day, 6745.022 timesteps/s, 3.642 Matom-step/s
99.9% CPU use with 4 MPI tasks x no OpenMP threads

MPI task timing breakdown:
Section |  min time  |  avg time  |  max time  |%varavg| %total
---------------------------------------------------------------
Pair    | 0.063113   | 0.065525   | 0.067945   |   0.8 | 44.20
Neigh   | 0.013504   | 0.013764   | 0.01399    |   0.2 |  9.28
Comm    | 0.017316   | 0.019956   | 0.022583   |   1.6 | 13.46
Output  | 9.208e-06  | 3.376e-05  | 4.2083e-05 |   0.0 |  0.02
Modify  | 0.047354   | 0.047394   | 0.047451   |   0.0 | 31.97
Other   |            | 0.001586   |            |       |  1.07

Nlocal:            135 ave         138 max         132 min
Histogram: 1 0 0 0 0 2 0 0 0 1
Nghost:           1183 ave        1188 max        1179 min
Histogram: 1 0 0 1 1 0 0 0 0 1
Neighs:         5944.5 ave        6195 max        5809 min
Histogram: 2 0 0 1 0 0 0 0 0 1

Total # of neighbors = 23778
Ave neighs/atom = 44.033333
Neighbor list builds = 95
Dangerous builds = 0
Wall Position 0.92
Generated 0 of 1 mixed pair_coeff terms from geometric mixing rule
Setting up Verlet run ...
  Unit style    : lj
  Current step  : 11000
  Time step     : 0.005
Per MPI rank memory allocation (min/avg/max) = 2.999 | 3.003 | 3.007 Mbytes
   Step          Temp          E_pair         E_mol          TotEng         Press     
     11000   0.62484303    -6.6091533      0             -5.6736244      4.4065106    
Loop time of 1.1145e-06 on 4 procs for 0 steps with 540 atoms

89.7% CPU use with 4 MPI tasks x no OpenMP threads

MPI task timing breakdown:
Section |  min time  |  avg time  |  max time  |%varavg| %total
---------------------------------------------------------------
Pair    | 0          | 0          | 0          |   0.0 |  0.00
Neigh   | 0          | 0          | 0          |   0.0 |  0.00
Comm    | 0          | 0          | 0          |   0.0 |  0.00
Output  | 0          | 0          | 0          |   0.0 |  0.00
Modify  | 0          | 0          | 0          |   0.0 |  0.00
Other   |            | 1.114e-06  |            |       |100.00

Nlocal:            135 ave         139 max         131 min
Histogram: 1 1 0 0 0 0 0 0 1 1
Nghost:         1179.5 ave        1185 max        1173 min
Histogram: 1 0 0 0 0 2 0 0 0 1
Neighs:        5938.25 ave        6242 max        5642 min
Histogram: 1 0 0 0 1 1 0 0 0 1

Total # of neighbors = 23753
Ave neighs/atom = 43.987037
Neighbor list builds = 0
Dangerous builds = 0
Generated 0 of 1 mixed pair_coeff terms from geometric mixing rule
Setting up Verlet run ...
  Unit style    : lj
  Current step  : 11000
  Time step     : 0.005
Per MPI rank memory allocation (min/avg/max) = 2.999 | 3.003 | 3.007 Mbytes
   Step          Temp          E_pair         E_mol          TotEng         Press     
     11000   0.62484303    -6.6091533      0             -5.6736244      4.4065106    
     12000   0.62860743    -6.6044385      0             -5.6632735      4.4228357    
Loop time of 0.15068 on 4 procs for 1000 steps with 540 atoms

Performance: 2866997.169 tau/day, 6636.568 timesteps/s, 3.584 Matom-step/s
99.9% CPU use with 4 MPI tasks x no OpenMP threads

MPI task timing breakdown:
Section |  min time  |  avg time  |  max time  |%varavg| %total
---------------------------------------------------------------
Pair    | 0.063194   | 0.065888   | 0.068128   |   0.8 | 43.73
Neigh   | 0.013516   | 0.013883   | 0.014179   |   0.2 |  9.21
Comm    | 0.018173   | 0.020616   | 0.023496   |   1.6 | 13.68
Output  | 9.333e-06  | 2.926e-05  | 3.6333e-05 |   0.0 |  0.02
Modify  | 0.048515   | 0.04864    | 0.048827   |   0.1 | 32.28
Other   |            | 0.001623   |            |       |  1.08

Nlocal:            135 ave         135 max         135 min
Histogram: 4 0 0 0 0 0 0 0 0 0
Nghost:           1174 ave        1179 max        1169 min
Histogram: 1 0 0 0 1 0 1 0 0 1
Neighs:           5938 ave        6112 max        5736 min
Histogram: 1 0 1 0 0 0 0 0 0 2

Total # of neighbors = 23752
Ave neighs/atom = 43.985185
Neighbor list builds = 95
Dangerous builds = 0
Wall Position 0.9
Generated 0 of 1 mixed pair_coeff terms from geometric mixing rule
Setting up Verlet run ...
  Unit style    : lj
  Current step  : 12000
  Time step     : 0.005
Per MPI rank memory allocation (min/avg/max) = 2.999 | 3.003 | 3.007 Mbytes
   Step          Temp          E_pair         E_mol          TotEng         Press     
     12000   0.62860743    -6.6044385      0             -5.6632735      4.4228357    
Loop time of 1.05175e-06 on 4 procs for 0 steps with 540 atoms

95.1% CPU use with 4 MPI tasks x no OpenMP threads

MPI task timing breakdown:
Section |  min time  |  avg time  |  max time  |%varavg| %total
---------------------------------------------------------------
Pair    | 0          | 0          | 0          |   0.0 |  0.00
Neigh   | 0          | 0          | 0          |   0.0 |  0.00
Comm    | 0          | 0          | 0          |   0.0 |  0.00
Output  | 0          | 0          | 0          |   0.0 |  0.00
Modify  | 0          | 0          | 0          |   0.0 |  0.00
Other   |            | 1.052e-06  |            |       |100.00

Nlocal:            135 ave         135 max         135 min
Histogram: 4 0 0 0 0 0 0 0 0 0
Nghost:           1174 ave        1179 max        1169 min
Histogram: 1 0 0 0 1 0 1 0 0 1
Neighs:           5938 ave        6112 max        5736 min
Histogram: 1 0 1 0 0 0 0 0 0 2

Total # of neighbors = 23752
Ave neighs/atom = 43.985185
Neighbor list builds = 0
Dangerous builds = 0
Generated 0 of 1 mixed pair_coeff terms from geometric mixing rule
Setting up Verlet run ...
  Unit style    : lj
  Current step  : 12000
  Time step     : 0.005
Per MPI rank memory allocation (min/avg/max) = 2.999 | 3.003 | 3.007 Mbytes
   Step          Temp          E_pair         E_mol          TotEng         Press     
     12000   0.62860743    -6.6044385      0             -5.6632735      4.4228357    
     13000   0.63310098    -6.5552136      0             -5.6073208      4.7194096    
Loop time of 0.153638 on 4 procs for 1000 steps with 540 atoms

Performance: 2811797.316 tau/day, 6508.790 timesteps/s, 3.515 Matom-step/s
99.6% CPU use with 4 MPI tasks x no OpenMP threads

MPI task timing breakdown:
Section |  min time  |  avg time  |  max time  |%varavg| %total
---------------------------------------------------------------
Pair    | 0.063986   | 0.066787   | 0.069283   |   0.8 | 43.47
Neigh   | 0.013669   | 0.014012   | 0.014445   |   0.2 |  9.12
Comm    | 0.017112   | 0.020125   | 0.023267   |   1.8 | 13.10
Output  | 1.2917e-05 | 3.8344e-05 | 4.6875e-05 |   0.0 |  0.02
Modify  | 0.050616   | 0.050954   | 0.051099   |   0.1 | 33.16
Other   |            | 0.001723   |            |       |  1.12

Nlocal:            135 ave         141 max         129 min
Histogram: 1 0 0 0 0 2 0 0 0 1
Nghost:           1179 ave        1183 max        1175 min
Histogram: 1 0 0 0 0 2 0 0 0 1
Neighs:        5956.25 ave        6143 max        5493 min
Histogram: 1 0 0 0 0 0 0 0 1 2

Total # of neighbors = 23825
Ave neighs/atom = 44.12037
Neighbor list builds = 95
Dangerous builds = 0
Wall Position 0.88
Generated 0 of 1 mixed pair_coeff terms from geometric mixing rule
Setting up Verlet run ...
  Unit style    : lj
  Current step  : 13000
  Time step     : 0.005
Per MPI rank memory allocation (min/avg/max) = 2.999 | 3.003 | 3.007 Mbytes
   Step          Temp          E_pair         E_mol          TotEng         Press     
     13000   0.63310098    -6.5552136      0             -5.6073208      4.7194096    
Loop time of 9.6875e-07 on 4 procs for 0 steps with 540 atoms

77.4% CPU use with 4 MPI tasks x no OpenMP threads

MPI task timing breakdown:
Section |  min time  |  avg time  |  max time  |%varavg| %total
---------------------------------------------------------------
Pair    | 0          | 0          | 0          |   0.0 |  0.00
Neigh   | 0          | 0          | 0          |   0.0 |  0.00
Comm    | 0          | 0          | 0          |   0.0 |  0.00
Output  | 0          | 0          | 0          |   0.0 |  0.00
Modify  | 0          | 0          | 0          |   0.0 |  0.00
Other   |            | 9.687e-07  |            |       |100.00

Nlocal:            135 ave         138 max         132 min
Histogram: 1 1 0 0 0 0 0 0 1 1
Nghost:         1176.5 ave        1179 max        1174 min
Histogram: 2 0 0 0 0 0 0 0 0 2
Neighs:        5957.75 ave        6184 max        5699 min
Histogram: 1 0 0 0 1 0 1 0 0 1

Total # of neighbors = 23831
Ave neighs/atom = 44.131481
Neighbor list builds = 0
Dangerous builds = 0
Generated 0 of 1 mixed pair_coeff terms from geometric mixing rule
Setting up Verlet run ...
  Unit style    : lj
  Current step  : 13000
  Time step     : 0.005
Per MPI rank memory allocation (min/avg/max) = 2.999 | 3.003 | 3.007 Mbytes
   Step          Temp          E_pair         E_mol          TotEng         Press     
     13000   0.63310098    -6.5552136      0             -5.6073208      4.7194096    
     14000   0.61243476    -6.5562485      0             -5.6392976      4.7204316    
Loop time of 0.264994 on 4 procs for 1000 steps with 540 atoms

Performance: 1630225.782 tau/day, 3773.671 timesteps/s, 2.038 Matom-step/s
78.3% CPU use with 4 MPI tasks x no OpenMP threads

MPI task timing breakdown:
Section |  min time  |  avg time  |  max time  |%varavg| %total
---------------------------------------------------------------
Pair    | 0.075781   | 0.078812   | 0.081752   |   1.0 | 29.74
Neigh   | 0.015289   | 0.017116   | 0.021703   |   2.0 |  6.46
Comm    | 0.060521   | 0.064676   | 0.070238   |   1.4 | 24.41
Output  | 1.325e-05  | 3.9687e-05 | 4.8583e-05 |   0.0 |  0.01
Modify  | 0.09466    | 0.10105    | 0.1099     |   1.7 | 38.13
Other   |            | 0.003299   |            |       |  1.25

Nlocal:            135 ave         140 max         130 min
Histogram: 1 0 0 1 0 0 0 1 0 1
Nghost:         1174.5 ave        1178 max        1172 min
Histogram: 1 1 0 0 0 1 0 0 0 1
Neighs:        5959.75 ave        6152 max        5575 min
Histogram: 1 0 0 0 0 0 1 0 0 2

Total # of neighbors = 23839
Ave neighs/atom = 44.146296
Neighbor list builds = 93
Dangerous builds = 0
Wall Position 0.86
Generated 0 of 1 mixed pair_coeff terms from geometric mixing rule
Setting up Verlet run ...
  Unit style    : lj
  Current step  : 14000
  Time step     : 0.005
Per MPI rank memory allocation (min/avg/max) = 2.999 | 3.003 | 3.007 Mbytes
   Step          Temp          E_pair         E_mol          TotEng         Press     
     14000   0.61243476    -6.5562485      0             -5.6392976      4.7204316    
Loop time of 9.6875e-07 on 4 procs for 0 steps with 540 atoms

103.2% CPU use with 4 MPI tasks x no OpenMP threads

MPI task timing breakdown:
Section |  min time  |  avg time  |  max time  |%varavg| %total
---------------------------------------------------------------
Pair    | 0          | 0          | 0          |   0.0 |  0.00
Neigh   | 0          | 0          | 0          |   0.0 |  0.00
Comm    | 0          | 0          | 0          |   0.0 |  0.00
Output  | 0          | 0          | 0          |   0.0 |  0.00
Modify  | 0          | 0          | 0          |   0.0 |  0.00
Other   |            | 9.687e-07  |            |       |100.00

Nlocal:            135 ave         140 max         130 min
Histogram: 1 0 0 1 0 0 0 1 0 1
Nghost:           1176 ave        1178 max        1174 min
Histogram: 1 0 1 0 0 0 0 1 0 1
Neighs:         5956.5 ave        6146 max        5569 min
Histogram: 1 0 0 0 0 0 1 0 0 2

Total # of neighbors = 23826
Ave neighs/atom = 44.122222
Neighbor list builds = 0
Dangerous builds = 0
Generated 0 of 1 mixed pair_coeff terms from geometric mixing rule
Setting up Verlet run ...
  Unit style    : lj
  Current step  : 14000
  Time step     : 0.005
Per MPI rank memory allocation (min/avg/max) = 2.999 | 3.003 | 3.007 Mbytes
   Step          Temp          E_pair         E_mol          TotEng         Press     
     14000   0.61243476    -6.5562485      0             -5.6392976      4.7204316    
     15000   0.60857596    -6.560831       0             -5.6496576      4.6685572    
Loop time of 0.264661 on 4 procs for 1000 steps with 540 atoms

Performance: 1632274.256 tau/day, 3778.413 timesteps/s, 2.040 Matom-step/s
89.8% CPU use with 4 MPI tasks x no OpenMP threads

MPI task timing breakdown:
Section |  min time  |  avg time  |  max time  |%varavg| %total
---------------------------------------------------------------
Pair    | 0.079277   | 0.080878   | 0.083943   |   0.6 | 30.56
Neigh   | 0.016789   | 0.017045   | 0.017632   |   0.3 |  6.44
Comm    | 0.055411   | 0.059327   | 0.061138   |   1.0 | 22.42
Output  | 9.05e-05   | 0.00012989 | 0.00014421 |   0.0 |  0.05
Modify  | 0.10255    | 0.10349    | 0.10476    |   0.3 | 39.10
Other   |            | 0.003793   |            |       |  1.43

Nlocal:            135 ave         142 max         128 min
Histogram: 2 0 0 0 0 0 0 0 0 2
Nghost:         1177.5 ave        1186 max        1168 min
Histogram: 1 0 0 1 0 0 0 1 0 1
Neighs:        5948.25 ave        6425 max        5366 min
Histogram: 1 0 0 0 1 0 0 1 0 1

Total # of neighbors = 23793
Ave neighs/atom = 44.061111
Neighbor list builds = 95
Dangerous builds = 0
Wall Position 0.84
Generated 0 of 1 mixed pair_coeff terms from geometric mixing rule
Setting up Verlet run ...
  Unit style    : lj
  Current step  : 15000
  Time step     : 0.005
Per MPI rank memory allocation (min/avg/max) = 2.999 | 3.003 | 3.007 Mbytes
   Step          Temp          E_pair         E_mol          TotEng         Press     
     15000   0.60857596    -6.560831       0             -5.6496576      4.6685572    
Loop time of 1.24975e-06 on 4 procs for 0 steps with 540 atoms

80.0% CPU use with 4 MPI tasks x no OpenMP threads

MPI task timing breakdown:
Section |  min time  |  avg time  |  max time  |%varavg| %total
---------------------------------------------------------------
Pair    | 0          | 0          | 0          |   0.0 |  0.00
Neigh   | 0          | 0          | 0          |   0.0 |  0.00
Comm    | 0          | 0          | 0          |   0.0 |  0.00
Output  | 0          | 0          | 0          |   0.0 |  0.00
Modify  | 0          | 0          | 0          |   0.0 |  0.00
Other   |            | 1.25e-06   |            |       |100.00

Nlocal:            135 ave         144 max         126 min
Histogram: 1 1 0 0 0 0 0 0 1 1
Nghost:         1174.5 ave        1184 max        1163 min
Histogram: 1 0 0 0 1 0 0 1 0 1
Neighs:         5963.5 ave        6403 max        5247 min
Histogram: 1 0 0 0 0 1 0 0 0 2

Total # of neighbors = 23854
Ave neighs/atom = 44.174074
Neighbor list builds = 0
Dangerous builds = 0
Generated 0 of 1 mixed pair_coeff terms from geometric mixing rule
Setting up Verlet run ...
  Unit style    : lj
  Current step  : 15000
  Time step     : 0.005
Per MPI rank memory allocation (min/avg/max) = 2.999 | 3.003 | 3.007 Mbytes
   Step          Temp          E_pair         E_mol          TotEng         Press     
     15000   0.60857596    -6.560831       0             -5.6496576      4.6685572    
     16000   0.64569645    -6.5925577      0             -5.6258066      4.5160752    
Loop time of 0.22459 on 4 procs for 1000 steps with 540 atoms

Performance: 1923501.129 tau/day, 4452.549 timesteps/s, 2.404 Matom-step/s
91.7% CPU use with 4 MPI tasks x no OpenMP threads

MPI task timing breakdown:
Section |  min time  |  avg time  |  max time  |%varavg| %total
---------------------------------------------------------------
Pair    | 0.071925   | 0.076915   | 0.080938   |   1.3 | 34.25
Neigh   | 0.015063   | 0.015809   | 0.016625   |   0.5 |  7.04
Comm    | 0.040288   | 0.045405   | 0.05096    |   1.9 | 20.22
Output  | 1.4334e-05 | 4.9709e-05 | 6.15e-05   |   0.0 |  0.02
Modify  | 0.082834   | 0.083266   | 0.083537   |   0.1 | 37.07
Other   |            | 0.003145   |            |       |  1.40

Nlocal:            135 ave         144 max         126 min
Histogram: 1 1 0 0 0 0 0 0 1 1
Nghost:           1178 ave        1188 max        1171 min
Histogram: 1 1 0 0 1 0 0 0 0 1
Neighs:           5970 ave        6484 max        5522 min
Histogram: 1 0 1 0 0 0 1 0 0 1

Total # of neighbors = 23880
Ave neighs/atom = 44.222222
Neighbor list builds = 95
Dangerous builds = 0
Wall Position 0.82
Generated 0 of 1 mixed pair_coeff terms from geometric mixing rule
Setting up Verlet run ...
  Unit style    : lj
  Current step  : 16000
  Time step     : 0.005
Per MPI rank memory allocation (min/avg/max) = 2.999 | 3.003 | 3.007 Mbytes
   Step          Temp          E_pair         E_mol          TotEng         Press     
     16000   0.64569645    -6.5925577      0             -5.6258066      4.5160752    
Loop time of 1.042e-06 on 4 procs for 0 steps with 540 atoms

96.0% CPU use with 4 MPI tasks x no OpenMP threads

MPI task timing breakdown:
Section |  min time  |  avg time  |  max time  |%varavg| %total
---------------------------------------------------------------
Pair    | 0          | 0          | 0          |   0.0 |  0.00
Neigh   | 0          | 0          | 0          |   0.0 |  0.00
Comm    | 0          | 0          | 0          |   0.0 |  0.00
Output  | 0          | 0          | 0          |   0.0 |  0.00
Modify  | 0          | 0          | 0          |   0.0 |  0.00
Other   |            | 1.042e-06  |            |       |100.00

Nlocal:            135 ave         144 max         126 min
Histogram: 1 1 0 0 0 0 0 0 1 1
Nghost:           1177 ave        1184 max        1170 min
Histogram: 1 0 0 1 0 0 1 0 0 1
Neighs:        5965.75 ave        6475 max        5496 min
Histogram: 1 0 1 0 0 0 1 0 0 1

Total # of neighbors = 23863
Ave neighs/atom = 44.190741
Neighbor list builds = 0
Dangerous builds = 0
Generated 0 of 1 mixed pair_coeff terms from geometric mixing rule
Setting up Verlet run ...
  Unit style    : lj
  Current step  : 16000
  Time step     : 0.005
Per MPI rank memory allocation (min/avg/max) = 2.999 | 3.003 | 3.007 Mbytes
   Step          Temp          E_pair         E_mol          TotEng         Press     
     16000   0.64569645    -6.5925577      0             -5.6258066      4.5160752    
     17000   0.59262651    -6.5849307      0             -5.6976371      4.5255031    
Loop time of 0.165569 on 4 procs for 1000 steps with 540 atoms

Performance: 2609186.876 tau/day, 6039.784 timesteps/s, 3.261 Matom-step/s
98.1% CPU use with 4 MPI tasks x no OpenMP threads

MPI task timing breakdown:
Section |  min time  |  avg time  |  max time  |%varavg| %total
---------------------------------------------------------------
Pair    | 0.066072   | 0.068197   | 0.070857   |   0.8 | 41.19
Neigh   | 0.013926   | 0.014443   | 0.015641   |   0.6 |  8.72
Comm    | 0.021076   | 0.024741   | 0.027429   |   1.5 | 14.94
Output  | 1.3166e-05 | 4.4687e-05 | 5.5333e-05 |   0.0 |  0.03
Modify  | 0.055791   | 0.055998   | 0.056392   |   0.1 | 33.82
Other   |            | 0.002146   |            |       |  1.30

Nlocal:            135 ave         136 max         134 min
Histogram: 1 0 0 0 0 2 0 0 0 1
Nghost:         1172.5 ave        1179 max        1158 min
Histogram: 1 0 0 0 0 0 0 0 1 2
Neighs:        5943.75 ave        6140 max        5793 min
Histogram: 1 1 0 0 0 1 0 0 0 1

Total # of neighbors = 23775
Ave neighs/atom = 44.027778
Neighbor list builds = 95
Dangerous builds = 0
Wall Position 0.8
Generated 0 of 1 mixed pair_coeff terms from geometric mixing rule
Setting up Verlet run ...
  Unit style    : lj
  Current step  : 17000
  Time step     : 0.005
Per MPI rank memory allocation (min/avg/max) = 2.999 | 3.003 | 3.007 Mbytes
   Step          Temp          E_pair         E_mol          TotEng         Press     
     17000   0.59262651    -6.5849307      0             -5.6976371      4.5255031    
Loop time of 1.1355e-06 on 4 procs for 0 steps with 540 atoms

110.1% CPU use with 4 MPI tasks x no OpenMP threads

MPI task timing breakdown:
Section |  min time  |  avg time  |  max time  |%varavg| %total
---------------------------------------------------------------
Pair    | 0          | 0          | 0          |   0.0 |  0.00
Neigh   | 0          | 0          | 0          |   0.0 |  0.00
Comm    | 0          | 0          | 0          |   0.0 |  0.00
Output  | 0          | 0          | 0          |   0.0 |  0.00
Modify  | 0          | 0          | 0          |   0.0 |  0.00
Other   |            | 1.135e-06  |            |       |100.00

Nlocal:            135 ave         136 max         134 min
Histogram: 1 0 0 0 0 2 0 0 0 1
Nghost:         1172.5 ave        1179 max        1158 min
Histogram: 1 0 0 0 0 0 0 0 1 2
Neighs:        5943.75 ave        6140 max        5793 min
Histogram: 1 1 0 0 0 1 0 0 0 1

Total # of neighbors = 23775
Ave neighs/atom = 44.027778
Neighbor list builds = 0
Dangerous builds = 0
Generated 0 of 1 mixed pair_coeff terms from geometric mixing rule
Setting up Verlet run ...
  Unit style    : lj
  Current step  : 17000
  Time step     : 0.005
Per MPI rank memory allocation (min/avg/max) = 2.999 | 3.003 | 3.007 Mbytes
   Step          Temp          E_pair         E_mol          TotEng         Press     
     17000   0.59262651    -6.5849307      0             -5.6976371      4.5255031    
     18000   0.61898032    -6.5687414      0             -5.6419903      4.6233328    
Loop time of 0.192957 on 4 procs for 1000 steps with 540 atoms

Performance: 2238837.512 tau/day, 5182.494 timesteps/s, 2.799 Matom-step/s
96.1% CPU use with 4 MPI tasks x no OpenMP threads

MPI task timing breakdown:
Section |  min time  |  avg time  |  max time  |%varavg| %total
---------------------------------------------------------------
Pair    | 0.069377   | 0.071527   | 0.07347    |   0.6 | 37.07
Neigh   | 0.014407   | 0.014763   | 0.015036   |   0.2 |  7.65
Comm    | 0.031722   | 0.033732   | 0.03573    |   1.0 | 17.48
Output  | 1.3e-05    | 4.3052e-05 | 5.3166e-05 |   0.0 |  0.02
Modify  | 0.070349   | 0.070514   | 0.070607   |   0.0 | 36.54
Other   |            | 0.002379   |            |       |  1.23

Nlocal:            135 ave         138 max         132 min
Histogram: 2 0 0 0 0 0 0 0 0 2
Nghost:         1178.5 ave        1184 max        1172 min
Histogram: 1 0 0 1 0 0 0 0 1 1
Neighs:        5949.25 ave        6205 max        5653 min
Histogram: 1 0 0 0 0 2 0 0 0 1

Total # of neighbors = 23797
Ave neighs/atom = 44.068519
Neighbor list builds = 94
Dangerous builds = 0
Wall Position 0.78
Generated 0 of 1 mixed pair_coeff terms from geometric mixing rule
Setting up Verlet run ...
  Unit style    : lj
  Current step  : 18000
  Time step     : 0.005
Per MPI rank memory allocation (min/avg/max) = 2.999 | 3.003 | 3.007 Mbytes
   Step          Temp          E_pair         E_mol          TotEng         Press     
     18000   0.61898032    -6.5687414      0             -5.6419903      4.6233328    
Loop time of 9.8975e-07 on 4 procs for 0 steps with 540 atoms

50.5% CPU use with 4 MPI tasks x no OpenMP threads

MPI task timing breakdown:
Section |  min time  |  avg time  |  max time  |%varavg| %total
---------------------------------------------------------------
Pair    | 0          | 0          | 0          |   0.0 |  0.00
Neigh   | 0          | 0          | 0          |   0.0 |  0.00
Comm    | 0          | 0          | 0          |   0.0 |  0.00
Output  | 0          | 0          | 0          |   0.0 |  0.00
Modify  | 0          | 0          | 0          |   0.0 |  0.00
Other   |            | 9.897e-07  |            |       |100.00

Nlocal:            135 ave         141 max         129 min
Histogram: 1 0 1 0 0 0 0 1 0 1
Nghost:           1178 ave        1187 max        1172 min
Histogram: 1 1 0 0 1 0 0 0 0 1
Neighs:           5945 ave        6316 max        5677 min
Histogram: 1 0 0 2 0 0 0 0 0 1

Total # of neighbors = 23780
Ave neighs/atom = 44.037037
Neighbor list builds = 0
Dangerous builds = 0
Generated 0 of 1 mixed pair_coeff terms from geometric mixing rule
Setting up Verlet run ...
  Unit style    : lj
  Current step  : 18000
  Time step     : 0.005
Per MPI rank memory allocation (min/avg/max) = 2.999 | 3.003 | 3.007 Mbytes
   Step          Temp          E_pair         E_mol          TotEng         Press     
     18000   0.61898032    -6.5687414      0             -5.6419903      4.6233328    
     19000   0.59683297    -6.5884665      0             -5.6948749      4.4971118    
Loop time of 0.256019 on 4 procs for 1000 steps with 540 atoms

Performance: 1687377.716 tau/day, 3905.967 timesteps/s, 2.109 Matom-step/s
92.8% CPU use with 4 MPI tasks x no OpenMP threads

MPI task timing breakdown:
Section |  min time  |  avg time  |  max time  |%varavg| %total
---------------------------------------------------------------
Pair    | 0.077926   | 0.079632   | 0.081414   |   0.4 | 31.10
Neigh   | 0.016124   | 0.016578   | 0.017191   |   0.3 |  6.48
Comm    | 0.054398   | 0.056653   | 0.058834   |   0.7 | 22.13
Output  | 1.5667e-05 | 4.8354e-05 | 5.9375e-05 |   0.0 |  0.02
Modify  | 0.097734   | 0.098397   | 0.098806   |   0.1 | 38.43
Other   |            | 0.00471    |            |       |  1.84

Nlocal:            135 ave         136 max         134 min
Histogram: 1 0 0 0 0 2 0 0 0 1
Nghost:           1174 ave        1180 max        1169 min
Histogram: 2 0 0 0 0 0 0 1 0 1
Neighs:           5956 ave        6120 max        5786 min
Histogram: 2 0 0 0 0 0 0 0 0 2

Total # of neighbors = 23824
Ave neighs/atom = 44.118519
Neighbor list builds = 96
Dangerous builds = 0
Wall Position 0.76
Generated 0 of 1 mixed pair_coeff terms from geometric mixing rule
Setting up Verlet run ...
  Unit style    : lj
  Current step  : 19000
  Time step     : 0.005
Per MPI rank memory allocation (min/avg/max) = 2.999 | 3.003 | 3.007 Mbytes
   Step          Temp          E_pair         E_mol          TotEng         Press     
     19000   0.59683297    -6.5884665      0             -5.6948749      4.4971118    
Loop time of 3.198e-06 on 4 procs for 0 steps with 540 atoms

101.6% CPU use with 4 MPI tasks x no OpenMP threads

MPI task timing breakdown:
Section |  min time  |  avg time  |  max time  |%varavg| %total
---------------------------------------------------------------
Pair    | 0          | 0          | 0          |   0.0 |  0.00
Neigh   | 0          | 0          | 0          |   0.0 |  0.00
Comm    | 0          | 0          | 0          |   0.0 |  0.00
Output  | 0          | 0          | 0          |   0.0 |  0.00
Modify  | 0          | 0          | 0          |   0.0 |  0.00
Other   |            | 3.198e-06  |            |       |100.00

Nlocal:            135 ave         140 max         130 min
Histogram: 1 0 0 0 0 2 0 0 0 1
Nghost:         1174.5 ave        1184 max        1166 min
Histogram: 1 0 0 1 0 1 0 0 0 1
Neighs:        5958.25 ave        6272 max        5787 min
Histogram: 2 0 0 1 0 0 0 0 0 1

Total # of neighbors = 23833
Ave neighs/atom = 44.135185
Neighbor list builds = 0
Dangerous builds = 0
Generated 0 of 1 mixed pair_coeff terms from geometric mixing rule
Setting up Verlet run ...
  Unit style    : lj
  Current step  : 19000
  Time step     : 0.005
Per MPI rank memory allocation (min/avg/max) = 2.999 | 3.003 | 3.007 Mbytes
   Step          Temp          E_pair         E_mol          TotEng         Press     
     19000   0.59683297    -6.5884665      0             -5.6948749      4.4971118    
     20000   0.64986954    -6.596725       0             -5.6237259      4.5183777    
Loop time of 0.356094 on 4 procs for 1000 steps with 540 atoms

Performance: 1213163.668 tau/day, 2808.249 timesteps/s, 1.516 Matom-step/s
84.2% CPU use with 4 MPI tasks x no OpenMP threads

MPI task timing breakdown:
Section |  min time  |  avg time  |  max time  |%varavg| %total
---------------------------------------------------------------
Pair    | 0.086382   | 0.090023   | 0.092179   |   0.7 | 25.28
Neigh   | 0.017927   | 0.019489   | 0.022605   |   1.4 |  5.47
Comm    | 0.096252   | 0.098437   | 0.10234    |   0.7 | 27.64
Output  | 5.8417e-05 | 0.010334   | 0.013759   |   5.8 |  2.90
Modify  | 0.12706    | 0.1311     | 0.14247    |   1.8 | 36.82
Other   |            | 0.006711   |            |       |  1.88

Nlocal:            135 ave         139 max         131 min
Histogram: 1 0 0 1 0 0 1 0 0 1
Nghost:         1177.5 ave        1185 max        1174 min
Histogram: 2 1 0 0 0 0 0 0 0 1
Neighs:         5969.5 ave        6141 max        5608 min
Histogram: 1 0 0 0 0 0 0 1 0 2

Total # of neighbors = 23878
Ave neighs/atom = 44.218519
Neighbor list builds = 95
Dangerous builds = 0
Wall Position 0.74
Generated 0 of 1 mixed pair_coeff terms from geometric mixing rule
Setting up Verlet run ...
  Unit style    : lj
  Current step  : 20000
  Time step     : 0.005
Per MPI rank memory allocation (min/avg/max) = 2.999 | 3.003 | 3.007 Mbytes
   Step          Temp          E_pair         E_mol          TotEng         Press     
     20000   0.64986954    -6.596725       0             -5.6237259      4.5183777    
Loop time of 2.135e-06 on 4 procs for 0 steps with 540 atoms

93.7% CPU use with 4 MPI tasks x no OpenMP threads

MPI task timing breakdown:
Section |  min time  |  avg time  |  max time  |%varavg| %total
---------------------------------------------------------------
Pair    | 0          | 0          | 0          |   0.0 |  0.00
Neigh   | 0          | 0          | 0          |   0.0 |  0.00
Comm    | 0          | 0          | 0          |   0.0 |  0.00
Output  | 0          | 0          | 0          |   0.0 |  0.00
Modify  | 0          | 0          | 0          |   0.0 |  0.00
Other   |            | 2.135e-06  |            |       |100.00

Nlocal:            135 ave         138 max         132 min
Histogram: 1 1 0 0 0 0 0 0 1 1
Nghost:           1177 ave        1181 max        1173 min
Histogram: 1 1 0 0 0 0 0 0 1 1
Neighs:        5959.75 ave        6167 max        5618 min
Histogram: 1 0 0 0 0 0 1 1 0 1

Total # of neighbors = 23839
Ave neighs/atom = 44.146296
Neighbor list builds = 0
Dangerous builds = 0
Generated 0 of 1 mixed pair_coeff terms from geometric mixing rule
Setting up Verlet run ...
  Unit style    : lj
  Current step  : 20000
  Time step     : 0.005
Per MPI rank memory allocation (min/avg/max) = 2.999 | 3.003 | 3.007 Mbytes
   Step          Temp          E_pair         E_mol          TotEng         Press     
     20000   0.64986954    -6.596725       0             -5.6237259      4.5183777    
     21000   0.63375883    -6.5582334      0             -5.6093556      4.7077203    
Loop time of 0.296919 on 4 procs for 1000 steps with 540 atoms

Performance: 1454940.266 tau/day, 3367.917 timesteps/s, 1.819 Matom-step/s
76.4% CPU use with 4 MPI tasks x no OpenMP threads

MPI task timing breakdown:
Section |  min time  |  avg time  |  max time  |%varavg| %total
---------------------------------------------------------------
Pair    | 0.073532   | 0.078287   | 0.082228   |   1.1 | 26.37
Neigh   | 0.016243   | 0.017385   | 0.018501   |   0.8 |  5.86
Comm    | 0.072469   | 0.075519   | 0.081657   |   1.3 | 25.43
Output  | 2.0291e-05 | 6.6552e-05 | 8.2042e-05 |   0.0 |  0.02
Modify  | 0.11544    | 0.11726    | 0.12049    |   0.6 | 39.49
Other   |            | 0.008399   |            |       |  2.83

Nlocal:            135 ave         137 max         133 min
Histogram: 1 0 0 0 0 2 0 0 0 1
Nghost:         1176.5 ave        1179 max        1173 min
Histogram: 1 0 0 1 0 0 0 0 0 2
Neighs:         5936.5 ave        6148 max        5791 min
Histogram: 2 0 0 0 0 1 0 0 0 1

Total # of neighbors = 23746
Ave neighs/atom = 43.974074
Neighbor list builds = 94
Dangerous builds = 0
Wall Position 0.72
Generated 0 of 1 mixed pair_coeff terms from geometric mixing rule
Setting up Verlet run ...
  Unit style    : lj
  Current step  : 21000
  Time step     : 0.005
Per MPI rank memory allocation (min/avg/max) = 2.999 | 3.003 | 3.007 Mbytes
   Step          Temp          E_pair         E_mol          TotEng         Press     
     21000   0.63375883    -6.5582334      0             -5.6093556      4.7077203    
Loop time of 1.15625e-06 on 4 procs for 0 steps with 540 atoms

86.5% CPU use with 4 MPI tasks x no OpenMP threads

MPI task timing breakdown:
Section |  min time  |  avg time  |  max time  |%varavg| %total
---------------------------------------------------------------
Pair    | 0          | 0          | 0          |   0.0 |  0.00
Neigh   | 0          | 0          | 0          |   0.0 |  0.00
Comm    | 0          | 0          | 0          |   0.0 |  0.00
Output  | 0          | 0          | 0          |   0.0 |  0.00
Modify  | 0          | 0          | 0          |   0.0 |  0.00
Other   |            | 1.156e-06  |            |       |100.00

Nlocal:            135 ave         137 max         133 min
Histogram: 2 0 0 0 0 0 0 0 0 2
Nghost:           1174 ave        1177 max        1171 min
Histogram: 1 0 0 1 0 0 1 0 0 1
Neighs:         5934.5 ave        6138 max        5705 min
Histogram: 1 0 0 0 1 0 0 1 0 1

Total # of neighbors = 23738
Ave neighs/atom = 43.959259
Neighbor list builds = 0
Dangerous builds = 0
Generated 0 of 1 mixed pair_coeff terms from geometric mixing rule
Setting up Verlet run ...
  Unit style    : lj
  Current step  : 21000
  Time step     : 0.005
Per MPI rank memory allocation (min/avg/max) = 2.999 | 3.003 | 3.007 Mbytes
   Step          Temp          E_pair         E_mol          TotEng         Press     
     21000   0.63375883    -6.5582334      0             -5.6093556      4.7077203    
     22000   0.60911908    -6.6219585      0             -5.7099718      4.3329138    
Loop time of 0.154569 on 4 procs for 1000 steps with 540 atoms

Performance: 2794861.350 tau/day, 6469.586 timesteps/s, 3.494 Matom-step/s
99.4% CPU use with 4 MPI tasks x no OpenMP threads

MPI task timing breakdown:
Section |  min time  |  avg time  |  max time  |%varavg| %total
---------------------------------------------------------------
Pair    | 0.064623   | 0.066832   | 0.068919   |   0.7 | 43.24
Neigh   | 0.013753   | 0.014064   | 0.014224   |   0.2 |  9.10
Comm    | 0.018057   | 0.020182   | 0.022685   |   1.4 | 13.06
Output  | 1.5916e-05 | 4.5677e-05 | 5.5625e-05 |   0.0 |  0.03
Modify  | 0.051681   | 0.051801   | 0.051977   |   0.1 | 33.51
Other   |            | 0.001644   |            |       |  1.06

Nlocal:            135 ave         138 max         132 min
Histogram: 1 0 0 1 0 0 1 0 0 1
Nghost:         1174.5 ave        1178 max        1166 min
Histogram: 1 0 0 0 0 0 0 0 1 2
Neighs:        5942.25 ave        6230 max        5740 min
Histogram: 1 0 1 1 0 0 0 0 0 1

Total # of neighbors = 23769
Ave neighs/atom = 44.016667
Neighbor list builds = 95
Dangerous builds = 0
Wall Position 0.7
Generated 0 of 1 mixed pair_coeff terms from geometric mixing rule
Setting up Verlet run ...
  Unit style    : lj
  Current step  : 22000
  Time step     : 0.005
Per MPI rank memory allocation (min/avg/max) = 2.999 | 3.003 | 3.007 Mbytes
   Step          Temp          E_pair         E_mol          TotEng         Press     
     22000   0.60911908    -6.6219585      0             -5.7099718      4.3329138    
Loop time of 1.3025e-06 on 4 procs for 0 steps with 540 atoms

96.0% CPU use with 4 MPI tasks x no OpenMP threads

MPI task timing breakdown:
Section |  min time  |  avg time  |  max time  |%varavg| %total
---------------------------------------------------------------
Pair    | 0          | 0          | 0          |   0.0 |  0.00
Neigh   | 0          | 0          | 0          |   0.0 |  0.00
Comm    | 0          | 0          | 0          |   0.0 |  0.00
Output  | 0          | 0          | 0          |   0.0 |  0.00
Modify  | 0          | 0          | 0          |   0.0 |  0.00
Other   |            | 1.303e-06  |            |       |100.00

Nlocal:            135 ave         138 max         132 min
Histogram: 1 0 0 0 0 2 0 0 0 1
Nghost:         1174.5 ave        1182 max        1167 min
Histogram: 1 0 0 0 1 1 0 0 0 1
Neighs:           5941 ave        6090 max        5644 min
Histogram: 1 0 0 0 0 0 0 1 0 2

Total # of neighbors = 23764
Ave neighs/atom = 44.007407
Neighbor list builds = 0
Dangerous builds = 0
Generated 0 of 1 mixed pair_coeff terms from geometric mixing rule
Setting up Verlet run ...
  Unit style    : lj
  Current step  : 22000
  Time step     : 0.005
Per MPI rank memory allocation (min/avg/max) = 2.999 | 3.003 | 3.007 Mbytes
   Step          Temp          E_pair         E_mol          TotEng         Press     
     22000   0.60911908    -6.6219585      0             -5.7099718      4.3329138    
     23000   0.62311983    -6.5743482      0             -5.6413993      4.6138431    
Loop time of 0.240761 on 4 procs for 1000 steps with 540 atoms

Performance: 1794309.068 tau/day, 4153.493 timesteps/s, 2.243 Matom-step/s
91.7% CPU use with 4 MPI tasks x no OpenMP threads

MPI task timing breakdown:
Section |  min time  |  avg time  |  max time  |%varavg| %total
---------------------------------------------------------------
Pair    | 0.074156   | 0.078019   | 0.082577   |   1.2 | 32.40
Neigh   | 0.015072   | 0.015832   | 0.016577   |   0.4 |  6.58
Comm    | 0.048366   | 0.05498    | 0.060416   |   1.9 | 22.84
Output  | 1.3666e-05 | 4.801e-05  | 5.9583e-05 |   0.0 |  0.02
Modify  | 0.087583   | 0.088336   | 0.089823   |   0.3 | 36.69
Other   |            | 0.003547   |            |       |  1.47

Nlocal:            135 ave         142 max         128 min
Histogram: 2 0 0 0 0 0 0 0 0 2
Nghost:         1174.5 ave        1184 max        1170 min
Histogram: 1 2 0 0 0 0 0 0 0 1
Neighs:        5958.25 ave        6394 max        5410 min
Histogram: 1 0 0 1 0 0 0 0 1 1

Total # of neighbors = 23833
Ave neighs/atom = 44.135185
Neighbor list builds = 94
Dangerous builds = 0
Wall Position 0.68
Generated 0 of 1 mixed pair_coeff terms from geometric mixing rule
Setting up Verlet run ...
  Unit style    : lj
  Current step  : 23000
  Time step     : 0.005
Per MPI rank memory allocation (min/avg/max) = 2.999 | 3.003 | 3.007 Mbytes
   Step          Temp          E_pair         E_mol          TotEng         Press     
     23000   0.62311983    -6.5743482      0             -5.6413993      4.6138431    
Loop time of 9.8975e-07 on 4 procs for 0 steps with 540 atoms

101.0% CPU use with 4 MPI tasks x no OpenMP threads

MPI task timing breakdown:
Section |  min time  |  avg time  |  max time  |%varavg| %total
---------------------------------------------------------------
Pair    | 0          | 0          | 0          |   0.0 |  0.00
Neigh   | 0          | 0          | 0          |   0.0 |  0.00
Comm    | 0          | 0          | 0          |   0.0 |  0.00
Output  | 0          | 0          | 0          |   0.0 |  0.00
Modify  | 0          | 0          | 0          |   0.0 |  0.00
Other   |            | 9.897e-07  |            |       |100.00

Nlocal:            135 ave         141 max         129 min
Histogram: 1 1 0 0 0 0 0 0 1 1
Nghost:         1178.5 ave        1183 max        1173 min
Histogram: 1 0 0 0 1 0 0 0 1 1
Neighs:         5947.5 ave        6281 max        5482 min
Histogram: 1 0 0 0 0 1 0 0 1 1

Total # of neighbors = 23790
Ave neighs/atom = 44.055556
Neighbor list builds = 0
Dangerous builds = 0
Generated 0 of 1 mixed pair_coeff terms from geometric mixing rule
Setting up Verlet run ...
  Unit style    : lj
  Current step  : 23000
  Time step     : 0.005
Per MPI rank memory allocation (min/avg/max) = 2.999 | 3.003 | 3.007 Mbytes
   Step          Temp          E_pair         E_mol          TotEng         Press     
     23000   0.62311983    -6.5743482      0             -5.6413993      4.6138431    
     24000   0.61282434    -6.6167544      0             -5.6992202      4.3739885    
Loop time of 0.171847 on 4 procs for 1000 steps with 540 atoms

Performance: 2513863.013 tau/day, 5819.127 timesteps/s, 3.142 Matom-step/s
97.9% CPU use with 4 MPI tasks x no OpenMP threads

MPI task timing breakdown:
Section |  min time  |  avg time  |  max time  |%varavg| %total
---------------------------------------------------------------
Pair    | 0.065622   | 0.06865    | 0.070966   |   0.8 | 39.95
Neigh   | 0.014318   | 0.014769   | 0.015071   |   0.2 |  8.59
Comm    | 0.024306   | 0.026725   | 0.030258   |   1.4 | 15.55
Output  | 1.425e-05  | 3.8969e-05 | 4.7417e-05 |   0.0 |  0.02
Modify  | 0.059488   | 0.059716   | 0.06008    |   0.1 | 34.75
Other   |            | 0.001948   |            |       |  1.13

Nlocal:            135 ave         140 max         130 min
Histogram: 1 0 0 1 0 0 0 1 0 1
Nghost:         1177.5 ave        1188 max        1171 min
Histogram: 1 1 0 0 1 0 0 0 0 1
Neighs:        5920.75 ave        6148 max        5535 min
Histogram: 1 0 0 0 0 0 0 1 1 1

Total # of neighbors = 23683
Ave neighs/atom = 43.857407
Neighbor list builds = 95
Dangerous builds = 0
Wall Position 0.66
Generated 0 of 1 mixed pair_coeff terms from geometric mixing rule
Setting up Verlet run ...
  Unit style    : lj
  Current step  : 24000
  Time step     : 0.005
Per MPI rank memory allocation (min/avg/max) = 2.999 | 3.003 | 3.007 Mbytes
   Step          Temp          E_pair         E_mol          TotEng         Press     
     24000   0.61282434    -6.6167544      0             -5.6992202      4.3739885    
Loop time of 1.2605e-06 on 4 procs for 0 steps with 540 atoms

79.3% CPU use with 4 MPI tasks x no OpenMP threads

MPI task timing breakdown:
Section |  min time  |  avg time  |  max time  |%varavg| %total
---------------------------------------------------------------
Pair    | 0          | 0          | 0          |   0.0 |  0.00
Neigh   | 0          | 0          | 0          |   0.0 |  0.00
Comm    | 0          | 0          | 0          |   0.0 |  0.00
Output  | 0          | 0          | 0          |   0.0 |  0.00
Modify  | 0          | 0          | 0          |   0.0 |  0.00
Other   |            | 1.26e-06   |            |       |100.00

Nlocal:            135 ave         137 max         133 min
Histogram: 1 0 1 0 0 0 0 1 0 1
Nghost:           1178 ave        1185 max        1170 min
Histogram: 1 0 1 0 0 0 0 0 1 1
Neighs:         5927.5 ave        6124 max        5732 min
Histogram: 1 0 1 0 0 0 0 1 0 1

Total # of neighbors = 23710
Ave neighs/atom = 43.907407
Neighbor list builds = 0
Dangerous builds = 0
Generated 0 of 1 mixed pair_coeff terms from geometric mixing rule
Setting up Verlet run ...
  Unit style    : lj
  Current step  : 24000
  Time step     : 0.005
Per MPI rank memory allocation (min/avg/max) = 2.999 | 3.003 | 3.007 Mbytes
   Step          Temp          E_pair         E_mol          TotEng         Press     
     24000   0.61282434    -6.6167544      0             -5.6992202      4.3739885    
     25000   0.61054508    -6.5783639      0             -5.6642423      4.5457304    
Loop time of 0.160797 on 4 procs for 1000 steps with 540 atoms

Performance: 2686619.201 tau/day, 6219.026 timesteps/s, 3.358 Matom-step/s
99.0% CPU use with 4 MPI tasks x no OpenMP threads

MPI task timing breakdown:
Section |  min time  |  avg time  |  max time  |%varavg| %total
---------------------------------------------------------------
Pair    | 0.064154   | 0.067205   | 0.069825   |   0.9 | 41.79
Neigh   | 0.013706   | 0.01413    | 0.014362   |   0.2 |  8.79
Comm    | 0.020266   | 0.022889   | 0.026372   |   1.6 | 14.23
Output  | 1.2583e-05 | 4.0969e-05 | 5.0875e-05 |   0.0 |  0.03
Modify  | 0.054431   | 0.05471    | 0.054969   |   0.1 | 34.02
Other   |            | 0.001822   |            |       |  1.13

Nlocal:            135 ave         139 max         131 min
Histogram: 1 0 1 0 0 0 0 1 0 1
Nghost:           1179 ave        1181 max        1175 min
Histogram: 1 0 0 0 0 0 1 0 0 2
Neighs:           5944 ave        6180 max        5548 min
Histogram: 1 0 0 0 0 0 0 2 0 1

Total # of neighbors = 23776
Ave neighs/atom = 44.02963
Neighbor list builds = 94
Dangerous builds = 0
Wall Position 0.64
Generated 0 of 1 mixed pair_coeff terms from geometric mixing rule
Setting up Verlet run ...
  Unit style    : lj
  Current step  : 25000
  Time step     : 0.005
Per MPI rank memory allocation (min/avg/max) = 2.999 | 3.003 | 3.007 Mbytes
   Step          Temp          E_pair         E_mol          TotEng         Press     
     25000   0.61054508    -6.5783639      0             -5.6642423      4.5457304    
Loop time of 1.09375e-06 on 4 procs for 0 steps with 540 atoms

91.4% CPU use with 4 MPI tasks x no OpenMP threads

MPI task timing breakdown:
Section |  min time  |  avg time  |  max time  |%varavg| %total
---------------------------------------------------------------
Pair    | 0          | 0          | 0          |   0.0 |  0.00
Neigh   | 0          | 0          | 0          |   0.0 |  0.00
Comm    | 0          | 0          | 0          |   0.0 |  0.00
Output  | 0          | 0          | 0          |   0.0 |  0.00
Modify  | 0          | 0          | 0          |   0.0 |  0.00
Other   |            | 1.094e-06  |            |       |100.00

Nlocal:            135 ave         139 max         131 min
Histogram: 1 0 1 0 0 0 0 1 0 1
Nghost:           1180 ave        1185 max        1175 min
Histogram: 1 0 0 0 1 0 1 0 0 1
Neighs:        5941.25 ave        6178 max        5543 min
Histogram: 1 0 0 0 0 0 0 2 0 1

Total # of neighbors = 23765
Ave neighs/atom = 44.009259
Neighbor list builds = 0
Dangerous builds = 0
Generated 0 of 1 mixed pair_coeff terms from geometric mixing rule
Setting up Verlet run ...
  Unit style    : lj
  Current step  : 25000
  Time step     : 0.005
Per MPI rank memory allocation (min/avg/max) = 2.999 | 3.003 | 3.007 Mbytes
   Step          Temp          E_pair         E_mol          TotEng         Press     
     25000   0.61054508    -6.5783639      0             -5.6642423      4.5457304    
     26000   0.61553586    -6.5929717      0             -5.6713777      4.5001463    
Loop time of 0.162913 on 4 procs for 1000 steps with 540 atoms

Performance: 2651722.427 tau/day, 6138.246 timesteps/s, 3.315 Matom-step/s
98.8% CPU use with 4 MPI tasks x no OpenMP threads

MPI task timing breakdown:
Section |  min time  |  avg time  |  max time  |%varavg| %total
---------------------------------------------------------------
Pair    | 0.066115   | 0.068121   | 0.069851   |   0.5 | 41.81
Neigh   | 0.014102   | 0.014322   | 0.014552   |   0.1 |  8.79
Comm    | 0.01995    | 0.022511   | 0.024916   |   1.2 | 13.82
Output  | 1.4084e-05 | 6.5354e-05 | 8.2916e-05 |   0.0 |  0.04
Modify  | 0.055797   | 0.056101   | 0.056852   |   0.2 | 34.44
Other   |            | 0.001793   |            |       |  1.10

Nlocal:            135 ave         137 max         133 min
Histogram: 1 0 1 0 0 0 0 1 0 1
Nghost:           1180 ave        1181 max        1179 min
Histogram: 1 0 0 0 0 2 0 0 0 1
Neighs:        5951.25 ave        6132 max        5659 min
Histogram: 1 0 0 0 0 1 0 0 1 1

Total # of neighbors = 23805
Ave neighs/atom = 44.083333
Neighbor list builds = 95
Dangerous builds = 0
Wall Position 0.62
Generated 0 of 1 mixed pair_coeff terms from geometric mixing rule
Setting up Verlet run ...
  Unit style    : lj
  Current step  : 26000
  Time step     : 0.005
Per MPI rank memory allocation (min/avg/max) = 2.999 | 3.003 | 3.007 Mbytes
   Step          Temp          E_pair         E_mol          TotEng         Press     
     26000   0.61553586    -6.5929717      0             -5.6713777      4.5001463    
Loop time of 1.12525e-06 on 4 procs for 0 steps with 540 atoms

88.9% CPU use with 4 MPI tasks x no OpenMP threads

MPI task timing breakdown:
Section |  min time  |  avg time  |  max time  |%varavg| %total
---------------------------------------------------------------
Pair    | 0          | 0          | 0          |   0.0 |  0.00
Neigh   | 0          | 0          | 0          |   0.0 |  0.00
Comm    | 0          | 0          | 0          |   0.0 |  0.00
Output  | 0          | 0          | 0          |   0.0 |  0.00
Modify  | 0          | 0          | 0          |   0.0 |  0.00
Other   |            | 1.125e-06  |            |       |100.00

Nlocal:            135 ave         138 max         132 min
Histogram: 1 0 0 0 0 2 0 0 0 1
Nghost:         1177.5 ave        1182 max        1173 min
Histogram: 1 0 0 0 1 1 0 0 0 1
Neighs:        5946.75 ave        6101 max        5617 min
Histogram: 1 0 0 0 0 0 0 1 0 2

Total # of neighbors = 23787
Ave neighs/atom = 44.05
Neighbor list builds = 0
Dangerous builds = 0
Generated 0 of 1 mixed pair_coeff terms from geometric mixing rule
Setting up Verlet run ...
  Unit style    : lj
  Current step  : 26000
  Time step     : 0.005
Per MPI rank memory allocation (min/avg/max) = 2.999 | 3.003 | 3.007 Mbytes
   Step          Temp          E_pair         E_mol          TotEng         Press     
     26000   0.61553586    -6.5929717      0             -5.6713777      4.5001463    
     27000   0.58757583    -6.5792648      0             -5.6995332      4.5452789    
Loop time of 0.208567 on 4 procs for 1000 steps with 540 atoms

Performance: 2071281.096 tau/day, 4794.632 timesteps/s, 2.589 Matom-step/s
93.1% CPU use with 4 MPI tasks x no OpenMP threads

MPI task timing breakdown:
Section |  min time  |  avg time  |  max time  |%varavg| %total
---------------------------------------------------------------
Pair    | 0.069963   | 0.073305   | 0.078582   |   1.2 | 35.15
Neigh   | 0.014395   | 0.015077   | 0.015789   |   0.6 |  7.23
Comm    | 0.035447   | 0.041392   | 0.043677   |   1.7 | 19.85
Output  | 1.4166e-05 | 4.4719e-05 | 5.4917e-05 |   0.0 |  0.02
Modify  | 0.075404   | 0.076154   | 0.076664   |   0.2 | 36.51
Other   |            | 0.002593   |            |       |  1.24

Nlocal:            135 ave         137 max         133 min
Histogram: 1 0 0 0 0 2 0 0 0 1
Nghost:           1174 ave        1181 max        1169 min
Histogram: 1 1 0 0 0 1 0 0 0 1
Neighs:           5963 ave        6188 max        5773 min
Histogram: 1 1 0 0 0 0 1 0 0 1

Total # of neighbors = 23852
Ave neighs/atom = 44.17037
Neighbor list builds = 94
Dangerous builds = 0
System init for write_data ...
Generated 0 of 1 mixed pair_coeff terms from geometric mixing rule
Total wall time: 0:00:05
