LAMMPS data file via write_data, version 2 Aug 2023, timestep = 50000, units = lj

2160 atoms
8 atom types

0 5.51124331 xlo xhi
0 5.72745206 ylo yhi
0 32.39936152 zlo zhi

Masses

1 1
2 1
3 1
4 1
5 1
6 1
7 1
8 1

Atoms # atomic

1 1 0.8298608760891574 0.49041855864318906 0.37679480734105125 0 0 0
3 1 0.244929529429863 1.3509448704660687 0.3608736600726524 0 0 0
5 1 1.9127651979161944 0.4546411249959204 0.4081808152521476 0 0 0
7 1 1.3913119131409246 1.3961338205813951 0.35258301083329313 0 0 0
9 1 2.9559474773124146 0.4325676332680675 0.4515384078724741 0 0 0
11 1 2.4803550253396813 1.3972417014107568 0.4050180636647295 0 0 0
13 1 4.061624162498535 0.4534019348334173 0.3691827855197533 0 0 0
15 1 3.5632635591923187 1.4090869124841106 0.36514757815501553 0 0 0
17 1 5.199951290612906 0.4921586877574437 0.5110104237341759 0 0 0
19 1 4.639629139813131 1.386808630436213 0.39893699821873274 0 0 0
21 1 0.8366933201001009 2.351462768409428 0.35966375828056824 0 0 0
23 1 1.909555549102996 2.4051021788375526 0.4705551663041231 0 0 0
25 1 2.9715908479952664 2.436625428956309 0.4685916673678297 0 0 0
27 1 4.1276982794650205 2.3747504646693596 0.3917983229908811 0 0 0
29 1 5.271243730149784 2.388088128105572 0.4159422513120299 0 0 0
31 1 0.3364178929790761 0.6708393716165812 1.3667500812537723 0 0 0
33 1 0.811940723671986 1.6405490897623622 1.2398238797863932 0 0 0
35 1 1.4357141024699107 0.7220812482225041 1.3002906760994446 0 0 0
37 1 2.0154547104456375 1.7460859200218624 1.3808292271553224 0 0 0
39 1 2.519911828086698 0.7705377210360673 1.3514460703383473 0 0 0
41 1 3.0784163016419264 1.7273999437109548 1.3711632840732875 0 0 0
43 1 3.5769762688460647 0.8148441367768631 1.3355231914519234 0 0 0
45 1 4.108057407799439 1.754533372808034 1.2382524232954069 0 0 0
47 1 4.67319574687964 0.871775457229952 1.4133849644693814 0 0 0
49 1 5.205391209868732 1.7210498321076824 1.2919650154459836 0 0 0
51 1 2.4599822519883587 2.086479871182173 5.031176860742075 0 0 0
53 1 4.69321939139592 0.18574972389687064 2.220037465036605 0 0 0
55 1 4.642097763647734 2.1353799589992764 4.949136079743995 0 0 0
57 1 0.21306863480608967 0.17264607732859472 4.957794756073472 0 0 0
59 1 4.661906794472537 0.25913206031774977 4.942016203579303 0 0 0
61 1 2.4125617031634845 0.27685774936821655 4.952414765159455 0 0 0
63 1 0.8026817794552786 1.1155614322444505 2.1748663182598778 0 0 0
65 1 0.3285613579191394 2.69795640792897 3.969013126775672 0 0 0
67 1 1.9387564404240636 1.0938921495905016 2.299927313462048 0 0 0
69 1 1.3768379551862295 2.736071963992323 3.9376820889934745 0 0 0
71 1 3.09412101501934 1.158946388536355 2.2528800440294168 0 0 0
73 1 0.2465706634873108 2.6823014445740188 1.2908143055602876 0 0 0
75 1 4.1708293276052215 1.1819379625391429 2.2155458812839672 0 0 0
77 1 3.4911527135311826 2.0956440106979706 4.965879297608349 0 0 0
79 1 5.237491270243786 1.1360128321861207 2.2147928104717156 0 0 0
81 1 0.24823666374828926 1.988975029643505 2.1057333686692097 0 0 0
83 1 1.3171171741061416 2.1141025654372787 2.138013688761541 0 0 0
85 1 2.478125100801485 2.0281785881245953 2.2830701377488802 0 0 0
87 1 3.6575847230526275 2.0853852213450024 2.1693095487664245 0 0 0
89 1 4.67909807680123 2.0761984202837414 2.177890662304565 0 0 0
91 1 0.7100457005416307 0.43341047763311563 3.169322730931404 0 0 0
93 1 0.27140698415198206 1.3870725725039859 3.099119942085821 0 0 0
95 1 1.8679164933044152 0.4349090957907283 3.1365818690312355 0 0 0
97 1 1.3617028761317975 1.3919885248161958 3.139480761547035 0 0 0
99 1 2.9215532590940847 0.5705059666262363 3.0917155161711216 0 0 0
101 1 2.4631464651234265 1.4804044190282293 3.210356293903648 0 0 0
103 1 4.1097427746411945 0.5698342413839247 3.0884726471543256 0 0 0
105 1 3.601439587684664 1.4780286819843724 3.123774154881882 0 0 0
107 1 5.192429868394074 0.453475284734721 3.1200804428981987 0 0 0
109 1 4.693695311709154 1.551927588745803 3.1415138531865217 0 0 0
111 1 0.7505573055604058 2.3944594999876387 3.0159586720486886 0 0 0
113 1 1.8743669421849674 2.380678554895323 3.0887723980130177 0 0 0
115 1 3.0323996261434396 2.360603350075277 3.1497319714662417 0 0 0
117 1 4.0295845171561115 2.431789396452035 3.159195676798131 0 0 0
119 1 5.185708116444042 2.4382012139048044 3.0583099266031994 0 0 0
121 1 0.2002440576232241 0.7924682021643367 4.04974604547541 0 0 0
123 1 0.6859721488735282 1.7695605018894187 3.9427179217788684 0 0 0
125 1 1.2879944837675505 0.7275869374538566 3.9333901378657 0 0 0
127 1 1.9299346996191598 1.7737940423196763 4.065112882198139 0 0 0
129 1 2.3600008916491957 0.79829636735466 3.98831622044463 0 0 0
131 1 3.0054415495485483 1.7334306282967156 3.9799709764767353 0 0 0
133 1 3.5946544032637027 0.9243616682108754 3.9663535781681407 0 0 0
135 1 4.065688808769416 1.8591849994934029 4.1010133284432655 0 0 0
137 1 4.6047482326790465 0.8596280440068376 3.9816514841113033 0 0 0
139 1 5.162512790709252 1.7548036131667355 3.9893808067060683 0 0 0
141 1 0.308044916062883 0.13907735188779297 2.2702648032689727 0 0 0
143 1 2.512125763267658 2.7188103762806035 1.3451342007563691 0 0 0
145 1 1.3811856002329317 2.6884729756286765 1.257173996144808 0 0 0
147 1 1.3434749328996307 0.21970989385376008 2.2803295375843833 0 0 0
149 1 3.4621450963431655 2.6980965988281516 4.086608551458176 0 0 0
151 1 2.4434077401626904 0.0842026331856051 2.1373768730532654 0 0 0
153 1 0.8112333090778844 1.1223245113146547 4.953126491860709 0 0 0
155 1 2.3714109148102787 2.7345898057604985 4.013755312065101 0 0 0
157 1 1.8992508828593813 1.2134386027617565 4.993932409570617 0 0 0
159 1 4.647079151430646 2.6870919775181332 1.279322386794868 0 0 0
161 1 2.963582790247259 1.1809636902787737 4.928340459364892 0 0 0
163 1 3.5546185799703354 2.7379352595795763 1.2463508891807829 0 0 0
165 1 4.080781648516271 1.2480856140252359 4.924851780987973 0 0 0
167 1 1.1923783424055336 2.1528244790813424 4.824450465103158 0 0 0
169 1 5.1315126189917475 1.213495008813302 4.878460968882303 0 0 0
171 1 0.1541295659863335 2.141597010810832 4.9157303227133236 0 0 0
173 1 3.5389450384632433 0.26857932393135375 4.951269960942696 0 0 0
175 1 3.6279064156548158 0.0965974318298471 2.1333429227257383 0 0 0
177 1 1.363379999926389 0.2518268566712562 4.866621953664951 0 0 0
179 1 4.646234867470228 2.646801509937469 3.9896204894068306 0 0 0
181 1 0.7973360508765789 0.45986756763729864 5.820956737496914 0 0 0
183 1 0.11263599175751783 1.4892771825713675 5.794317874843888 0 0 0
185 1 1.8859085025031628 0.4583049163281976 5.793939862701984 0 0 0
187 1 1.270825776556158 1.392371673091525 5.833561463840969 0 0 0
189 1 2.9745256652797454 0.4560785239341747 5.873435411590061 0 0 0
191 1 2.440445770751848 1.4544609656240697 5.860760120285849 0 0 0
193 1 4.064911452266379 0.5079944139101609 5.86076335842634 0 0 0
195 1 3.546709328614666 1.4098851275962458 5.855856072257855 0 0 0
197 1 5.224662863734394 0.4705431191029373 5.841279677582006 0 0 0
199 1 4.575620479990056 1.3993229068060697 5.922131379759296 0 0 0
201 1 0.7874950384112377 2.30503342994257 5.691645034163214 0 0 0
203 1 1.8169284925319602 2.3382789516212603 5.864480684274019 0 0 0
205 1 2.9942189772250063 2.3938717296807317 5.8902919938787015 0 0 0
207 1 4.0932451579820235 2.5047580107929894 5.882014529698826 0 0 0
209 1 5.117762903803351 2.3681422196959847 5.84151236173823 0 0 0
211 1 0.19224397273736382 0.8398684004624003 6.6362636688765795 0 0 0
213 1 0.7840360385075492 1.6552794918274802 6.672567788970054 0 0 0
215 1 1.4264765805412418 0.8045582010982509 6.696259203404714 0 0 0
217 1 1.8786696553669735 1.71950880139343 6.753145636793396 0 0 0
219 1 2.5015063533365063 0.8110313139049311 6.7912720694214315 0 0 0
221 1 2.967382935714191 1.8053454073956414 6.82694703792258 0 0 0
223 1 3.500875828518904 0.7864835397539697 6.743602268294925 0 0 0
225 1 4.0928274152325965 1.7796305318912142 6.760232802851846 0 0 0
227 1 4.670409199275473 0.7228177784915172 6.789291907358026 0 0 0
229 1 5.162253004681527 1.728860165608373 6.757271185142601 0 0 0
231 1 1.4386939141357955 0.04032547883008965 7.567100808441316 0 0 0
233 1 0.3235953122459105 0.1317687766603293 7.643295156847953 0 0 0
235 1 0.8981789741614322 1.1380404993698012 7.656635175109686 0 0 0
237 1 1.9102021445352093 1.0833204160206813 7.634842704934999 0 0 0
239 1 3.0372498986401824 1.1279888229815878 7.6452727211974905 0 0 0
241 1 1.330991471270261 2.6771135665414145 6.795226870015323 0 0 0
243 1 4.1171772906036415 1.1435974840665304 7.57092290762293 0 0 0
245 1 5.292334757064233 1.1499594498171786 7.588944312671812 0 0 0
247 1 0.31519586703250685 2.087024850365163 7.542016795415455 0 0 0
249 1 1.4710303878660664 2.1193987820532953 7.664439315601701 0 0 0
251 1 2.47735932992254 2.1321627390447344 7.655108709956412 0 0 0
253 1 3.6255471001280157 2.0531022136270316 7.711790325510272 0 0 0
255 1 4.663225775587065 2.0160757731599075 7.657916526164795 0 0 0
257 1 2.4113090255236775 2.6798993735185617 6.726656372678753 0 0 0
259 1 3.5265018385296605 2.7447102734857647 6.810352530097709 0 0 0
261 1 3.647652615058593 0.19351023816676882 7.634178612857452 0 0 0
263 1 4.643709519736236 2.6589237170594315 6.7438163231249595 0 0 0
265 1 4.621143056700392 0.14897465209691385 7.748779374842778 0 0 0
267 1 0.2354549023140063 2.6405813067414234 6.615403367703149 0 0 0
269 1 2.562116200577619 0.13679801478030953 7.690588484363144 0 0 0
271 1 0.2064749860367414 3.303601043366451 0.4773646405935752 0 0 0
273 1 1.3378869983263413 3.364601474735317 0.3209129036731832 0 0 0
275 1 2.477764648427209 3.3784685215313512 0.5085095474078355 0 0 0
277 1 3.572793626991584 3.351851281413484 0.4170349748894942 0 0 0
279 1 4.730224172380878 3.33292435740021 0.46607781490465 0 0 0
281 1 0.8586852671533324 4.2491197868048705 0.3678309947246721 0 0 0
283 1 0.32000811091751397 5.2871541353393985 0.46167619643146557 0 0 0
285 1 1.8968639907371598 4.347236818224448 0.45034262498885597 0 0 0
287 1 1.3848680792762436 5.234494019428801 0.3846790187347229 0 0 0
289 1 3.106592458149525 4.316003754711874 0.4225792330678537 0 0 0
291 1 2.4815825459042067 5.183602325466617 0.41997248300283063 0 0 0
293 1 4.222956998182621 4.239231711454867 0.40286481590351914 0 0 0
295 1 3.648049323368431 5.219962221746574 0.36801110876998777 0 0 0
297 1 5.289043928661996 4.345304755802365 0.4172810252986556 0 0 0
299 1 4.732620992381045 5.24973277399355 0.43358694636932765 0 0 0
301 1 0.7735707973489868 3.646986986887459 1.2686819595424403 0 0 0
303 1 1.8959490681893125 3.610321392214798 1.4030932073947724 0 0 0
305 1 3.041074708829682 3.631436409712998 1.30837252025343 0 0 0
307 1 4.157716523101193 3.564752923675952 1.3220904177014963 0 0 0
309 1 5.211380126502206 3.707267141747977 1.3285964022472998 0 0 0
311 1 0.3673860594646608 4.65602693361063 1.2650246927727704 0 0 0
313 1 1.8828937293680699 3.035352427757236 4.953153885695617 0 0 0
315 1 1.3936924137809914 4.514256004568617 1.3678848031739725 0 0 0
317 1 0.8345710029853753 3.1622741597772728 4.899738401225759 0 0 0
319 1 2.478453705531023 4.55329528481914 1.3008298423641482 0 0 0
321 1 5.183077175018648 4.905564862865166 4.86981751279984 0 0 0
323 1 3.7191624343740144 4.637839519187234 1.2810152797363337 0 0 0
325 1 2.995927576474991 5.680260255308489 3.9446869706745926 0 0 0
327 1 4.783228818841085 4.5894929471774635 1.3286156262457807 0 0 0
329 1 1.8874556560487359 5.497839476880867 1.33803941464593 0 0 0
331 1 4.066971581162566 3.0345919613933106 2.256374312607847 0 0 0
333 1 4.111744978748235 3.0326283818024202 4.887429034573044 0 0 0
335 1 3.1679595652346824 5.496882209418558 1.287592551617261 0 0 0
337 1 5.2074714801652116 5.567922543221538 4.037881118524542 0 0 0
339 1 0.7610819671704242 5.539665177095298 4.020314381017794 0 0 0
341 1 0.29769211634655957 4.007735113539806 2.2913980287828206 0 0 0
343 1 0.8502758289660935 4.921236360221995 2.2032173828646773 0 0 0
345 1 1.4616808639119316 3.95553098705347 2.307272047231534 0 0 0
347 1 1.9419200373316683 4.841511801728403 2.2160352354251485 0 0 0
349 1 2.5240342522925108 3.958464906845042 2.2432410980344506 0 0 0
351 1 3.042002723777356 4.884107272946228 2.199979338671186 0 0 0
353 1 3.6106895905536915 3.989358662288892 2.2183472195022733 0 0 0
355 1 4.21064292474584 4.903898645060164 2.23111435361333 0 0 0
357 1 4.799954229364603 3.976944177701917 2.2666595472888997 0 0 0
359 1 5.241326467880373 4.972461498267699 2.236339097725066 0 0 0
361 1 0.2807003282928258 3.364496081314413 3.081336114262809 0 0 0
363 1 1.355588256749339 3.31928564626512 3.101522040534636 0 0 0
365 1 2.400198850754046 3.2683035748198974 3.0785697999385078 0 0 0
367 1 3.5946464598765275 3.364958663825263 3.165033893266333 0 0 0
369 1 4.65937924745023 3.2651590143393876 3.1038274784108073 0 0 0
371 1 0.8557368346350381 4.231939316208691 3.197825520355729 0 0 0
373 1 0.22818814610207108 5.2114580951312774 3.1412088683478876 0 0 0
375 1 1.9929988272298362 4.298371699194696 3.191915497469083 0 0 0
377 1 1.3276719778750616 5.207488880196839 3.1203090819135486 0 0 0
379 1 3.0090260318027586 4.210402663921346 3.1292900832193657 0 0 0
381 1 2.4496957492175166 5.279256374072743 3.0994339625840817 0 0 0
383 1 4.165784149214905 4.3375695548922 3.1531620784888275 0 0 0
385 1 3.60595405606689 5.21099862737098 3.107302031339813 0 0 0
387 1 5.242076512987224 4.326180280994884 3.1438230396820335 0 0 0
389 1 4.627112891872041 5.3328895607050475 3.0893815333205374 0 0 0
391 1 0.7639559724603088 3.6319475389459828 4.046854912114007 0 0 0
393 1 1.8579129731789767 3.682784544167871 4.1648243328081715 0 0 0
395 1 2.9197601370565183 3.662002360973506 3.9927171641587136 0 0 0
397 1 4.118032924567668 3.727367799027243 4.012529273941037 0 0 0
399 1 5.133608131978763 3.7581880085196393 4.002840817968018 0 0 0
401 1 0.2500163435967976 4.623147379141099 4.041591384353633 0 0 0
403 1 5.2088450025237 3.020355115607244 2.182343656508143 0 0 0
405 1 1.3747117095238264 4.679415771774135 4.113230896167066 0 0 0
407 1 1.9419754261745759 2.9494698900189285 2.1574310408747714 0 0 0
409 1 2.5233011297671517 4.705171913102261 4.052788786539633 0 0 0
411 1 5.1989104347027055 3.075602693342802 4.870026999858983 0 0 0
413 1 3.6160270453594254 4.661658839768557 4.004130565066852 0 0 0
415 1 4.496994822450454 4.030852064273712 4.933173223793791 0 0 0
417 1 4.634340714443802 4.664415001510955 4.035139144729123 0 0 0
419 1 0.904102591162898 3.0810349815100597 2.15824814648677 0 0 0
421 1 5.286582081878917 5.569034419764747 1.352208669511228 0 0 0
423 1 2.9839791525696056 3.0499531865348555 4.903843078983096 0 0 0
425 1 4.085933090867149 4.928784184517576 5.000081887471184 0 0 0
427 1 0.8999659777471893 5.538226892661965 1.3011990169990213 0 0 0
429 1 1.9416711055439984 5.604208106630122 4.023498501462363 0 0 0
431 1 0.1572224304919399 3.991544589885566 4.880869522015504 0 0 0
433 1 0.6960379587163331 4.981259111795541 4.933486392175952 0 0 0
435 1 1.2805337375542305 4.087379292714339 4.941813546259088 0 0 0
437 1 1.9767476481481705 5.017258572201246 4.991082066751592 0 0 0
439 1 2.3743702798983874 3.9888533510416466 4.968030120928928 0 0 0
441 1 3.0494738719089898 5.067903381795801 4.889711375236132 0 0 0
443 1 3.4261862650924546 4.037878149924934 4.812088843698391 0 0 0
445 1 4.1366620562041225 5.613508486133213 4.153670475344215 0 0 0
447 1 3.0534865960839457 3.0259486480397593 2.2666659576149524 0 0 0
449 1 4.238283408130169 5.535717800840722 1.3213116004100798 0 0 0
451 1 0.20776150315288403 3.240285463238272 5.798234996485059 0 0 0
453 1 1.323198655304627 3.3525039215561865 5.809897621058578 0 0 0
455 1 2.40049944541529 3.243536615296545 5.849345762894539 0 0 0
457 1 3.46363324305883 3.4082767469404662 5.875365277415757 0 0 0
459 1 4.72714265896892 3.430767073448824 5.750023852846563 0 0 0
461 1 0.7229306838078408 4.334744388218171 5.888846305269253 0 0 0
463 1 0.2409872337478702 5.312735892585913 5.869331843636765 0 0 0
465 1 1.8316484267277666 4.312485123902642 5.787777902876597 0 0 0
467 1 1.342820420264222 5.219317816429471 5.760634569175738 0 0 0
469 1 2.8909856680981743 4.365913581895418 5.817014645493611 0 0 0
471 1 2.4374387855197597 5.35476236280107 5.847744502809369 0 0 0
473 1 3.9935047129369337 4.18669777468693 5.748893542584689 0 0 0
475 1 3.5243821742854293 5.298484078499007 5.822952882314677 0 0 0
477 1 5.156158703752994 4.307260742420463 5.797124860701815 0 0 0
479 1 4.6318206769875045 5.22286931710087 5.816033184770086 0 0 0
481 1 0.8807949552468165 3.754394699671672 6.668705000050266 0 0 0
483 1 1.947927035273658 3.6678312816225955 6.653763564820175 0 0 0
485 1 2.9472489503620904 3.677000488197128 6.7349208095077175 0 0 0
487 1 4.169988681882565 3.6137625772872655 6.650497465806677 0 0 0
489 1 5.285326445958691 3.706012327876238 6.787350223388379 0 0 0
491 1 0.27889302840203156 4.609332532607174 6.763624008938902 0 0 0
493 1 3.0572748790429616 5.561844430040855 6.744313068433986 0 0 0
495 1 1.4229329154156438 4.590440565044332 6.773318208359151 0 0 0
497 1 5.2312870511255705 3.0116661340305986 7.589652475484247 0 0 0
499 1 2.4541363435598904 4.637287719506201 6.754936264835912 0 0 0
501 1 0.767457287010894 3.121222696718266 7.55411479018392 0 0 0
503 1 3.537652721203381 4.552928399578902 6.6182646631165305 0 0 0
505 1 0.9099720721187781 5.655168478873532 6.647946866181192 0 0 0
507 1 4.687454852301905 4.594865778345405 6.714746436628256 0 0 0
509 1 1.9819850679151594 5.620754166515227 6.740752288833706 0 0 0
511 1 1.909810868226342 3.0348930709042623 7.601948580016291 0 0 0
513 1 0.2681811274557748 4.050588942392641 7.62641711559472 0 0 0
515 1 0.8435649822818674 4.980319123112676 7.665968738030484 0 0 0
517 1 1.3827867755314573 4.038624151956978 7.64931144724272 0 0 0
519 1 1.9762771423290697 4.876406446909499 7.636123626433057 0 0 0
521 1 2.5508029777632397 3.921057220305232 7.649872294270209 0 0 0
523 1 3.037730609085711 4.956901541363396 7.582967918513929 0 0 0
525 1 3.6031942902325746 3.90202356188926 7.588892677696043 0 0 0
527 1 4.140743377762231 4.852596401055331 7.56506999970672 0 0 0
529 1 4.662144538780923 3.862215510887426 7.6206399086689505 0 0 0
531 1 5.228451539135933 4.952204254304673 7.670597763483086 0 0 0
533 1 5.2317214361314575 5.53170550283901 6.795272753499087 0 0 0
535 1 4.094499175767846 5.499944963133942 6.7475367986959345 0 0 0
537 1 4.093308726278496 2.958118451465653 7.671739243017991 0 0 0
539 1 3.0488676919967 3.040243110378693 7.571568404506407 0 0 0
1622 7 3.126625850677713 0.47903799058645746 4.053417186442083 0 0 0
1624 7 0.7750242333609147 0.4845714757502771 0.41992095226906256 0 0 0
1626 7 0.8569082055386751 2.4600966591777396 2.2533688332786443 0 0 0
1628 7 1.866806652890811 0.39079446283892383 0.4233919166332758 0 0 0
1630 7 4.703426098206704 0.7801703062866194 3.0483121799846016 0 0 0
1632 7 2.954492622596876 0.506860287824511 0.37820439763598235 0 0 0
1634 7 4.187490090328665 2.344823030673962 0.3968477049505901 0 0 0
1636 7 1.3843302937631008 2.7883426274635768 4.91768849768812 0 0 0
1638 7 4.04318547964175 0.4802549999867121 0.440264198995975 0 0 0
1640 7 5.111595779514905 0.4513632501474176 0.4515430002713712 -1 0 0
1642 7 1.3636050478925645 1.4452559684853452 0.37253771863659413 0 0 0
1644 7 4.700867834188832 2.085567669465861 1.4314646301739138 0 0 0
1646 7 3.5868570691055415 1.4073308354294374 0.4694946474469093 0 0 0
1648 7 4.627003471709807 1.4268183394661056 0.43421459613115443 0 0 0
1650 7 0.3502726481553033 1.5293512744143907 0.35321647137550816 0 0 0
1652 7 3.6808347006192705 0.7809210494344795 3.16123022949509 0 0 0
1654 7 0.8749678855913706 1.1211478209870316 1.4387758705729683 0 0 0
1656 7 0.22714473198150834 0.8098802715863933 3.123428579652711 0 0 0
1658 7 1.982683252414387 1.1729347171698286 1.3989394815879541 0 0 0
1660 7 3.11409262800176 2.4166888009625365 0.584260847667534 0 0 0
1662 7 3.0469677380297453 1.1349245671223391 1.2986403322900582 0 0 0
1664 7 2.5016224309818047 1.5281235383517673 0.4457029359113087 0 0 0
1666 7 1.9994755872866834 2.4075500013202293 0.4801381277842859 0 0 0
1668 7 3.642075748320285 2.734086016818687 4.981844488930123 0 0 0
1670 7 5.3252910119735 1.1093978667309452 1.2596518711525557 -1 0 0
1672 7 3.0695696076366836 2.420226835574803 4.070570051574444 0 0 0
1674 7 4.150680585043524 2.471100169982919 2.2729218027014197 0 0 0
1676 7 0.29978948349506723 2.700900682332751 4.903167085596551 0 0 0
1678 7 5.154672781820458 1.7724891896596278 4.862054577181289 -1 0 0
1680 7 4.146052404185966 1.0700364738526287 1.303691813049383 0 0 0
1682 7 1.2939841102588705 0.8556273409930826 3.1561252829571584 0 0 0
1684 7 0.8548239335970059 0.45869628593576856 2.280212972517139 0 0 0
1686 7 1.929825825468959 0.6414905104078096 4.0775199850207215 0 0 0
1688 7 1.9251425516268428 0.5160383421186772 2.2801764480782354 0 0 0
1690 7 0.7880090380417326 1.7374360585921738 5.018430866469644 0 0 0
1692 7 3.022028961326067 0.5039191271934081 2.3497432471091284 0 0 0
1694 7 4.1836017776075645 0.5264301617558137 3.9504747362668624 0 0 0
1696 7 4.054250192840483 0.4401230454128545 2.266465194604872 0 0 0
1698 7 5.323991754214141 2.4510297655348166 4.003226021618024 -1 0 0
1700 7 5.2383658460331395 0.46012249797413807 2.244472727426878 -1 0 0
1702 7 0.2593339549538239 1.4172329802843686 2.2602823719772283 0 0 0
1704 7 1.3719911052616875 1.5187483138321667 2.321535367027587 0 0 0
1706 7 2.5042600734539024 1.462394210300479 2.2599305486244927 0 0 0
1708 7 3.6265830082508925 1.4999898617662828 2.2926728573628283 0 0 0
1710 7 4.668616989440343 1.3386695114400347 2.1997358247026417 0 0 0
1712 7 1.3660051895081264 0.8545205732218544 4.996254473816067 0 0 0
1714 7 0.8094792774711619 1.7696295407978047 3.19898691581225 0 0 0
1716 7 3.6631389658007008 2.0005534810904826 1.3902277751956758 0 0 0
1718 7 1.93337736270795 1.814783928657828 3.227847411602697 0 0 0
1720 7 3.6903554877883336 0.8130973029165502 4.899163349688844 0 0 0
1722 7 3.0447810774253385 1.6707995553524428 3.1841925793640855 0 0 0
1724 7 0.839103831668409 2.3523548518617563 4.096715712953369 0 0 0
1726 7 4.18131916429585 1.8133219862605308 3.1364834513707622 0 0 0
1728 7 0.7874704151849055 0.47768408354697217 4.082275911094907 0 0 0
1730 7 5.170097594567904 1.707993602333721 3.0849784687132606 -1 0 0
1732 7 4.617344413326126 0.11824646566527833 1.3616772955163532 0 0 0
1734 7 4.743670090802673 2.793494254465821 3.0851156744567665 0 0 0
1736 7 2.4695000614983544 2.7304825748547215 4.914228411759904 0 0 0
1738 7 3.5311518816292464 0.22624376934311913 1.3774201945920757 0 0 0
1740 7 5.282702904378305 2.374108242864389 2.2223431073959405 -1 0 0
1742 7 0.34767438657219313 0.7937671452020659 4.929604335075717 0 0 0
1744 7 1.2996655614975048 1.4487704594494324 4.031870488566016 0 0 0
1746 7 1.3781087055699752 2.703224351145784 3.1446738729961576 0 0 0
1748 7 2.9971594080539203 1.7572801724980365 4.837241009896806 0 0 0
1750 7 2.528032582524373 0.7730241265849803 4.933435759720826 0 0 0
1752 7 3.622021983495909 1.4755642189186398 4.001141490530604 0 0 0
1754 7 3.015519141452915 2.4382862378800065 2.3238928670739423 0 0 0
1756 7 4.687220028275091 1.5115975669072472 3.9653282366101994 0 0 0
1758 7 2.505221615434235 1.4704685283488277 4.019350745183465 0 0 0
1760 7 0.192591748844124 1.4157047037291812 3.9976105377117737 0 0 0
1762 7 4.692219436769725 0.8449362233500731 4.882000371842328 0 0 0
1764 7 1.9482506825373849 2.4509406218677356 2.2827671198060537 0 0 0
1766 7 1.9731812475375934 2.347263087501864 4.054549340107771 0 0 0
1768 7 1.8648282423721319 1.7089188934916597 4.928370726099076 0 0 0
1770 7 2.5246936266480517 2.0938316078559063 1.4193969976118668 0 0 0
1772 7 0.3279187580815626 2.0962719375932086 1.2898316727883692 0 0 0
1774 7 1.3879611574663415 2.0341452366973525 1.2741633656067033 0 0 0
1776 7 4.130300774645132 2.3858960084876757 4.012246540319393 0 0 0
1778 7 5.2616943293460645 0.5311680579389295 4.105062777057119 -1 0 0
1780 7 4.141583923801017 1.7712421693525235 4.943429045765373 0 0 0
1782 7 2.414076697577621 0.20978191022995357 1.4061482487631587 0 0 0
1784 7 5.203164675011201 2.3867120373851916 0.4560649345472554 -1 0 0
1786 7 0.884408830482286 2.491046919648596 0.4194350015901367 0 0 0
1788 7 2.389280711599068 0.8153710563007143 3.1421899631818513 0 0 0
1790 7 0.30172544344377333 2.7109097837523146 3.1221148671279937 0 0 0
1792 7 3.5968344142505817 2.640166494480776 3.1846193603524102 0 0 0
1794 7 4.690771148993921 2.7607666077557247 4.936935562188831 0 0 0
1796 7 2.554348642010264 2.774040074985943 3.2360365358419156 0 0 0
1798 7 1.347806951867394 0.16588670505960024 1.3998734053732413 0 0 0
1800 7 0.17037727133935046 0.08790389038997627 1.3931940999446502 0 0 0
1802 7 4.079679983274733 0.5416570746108352 6.809542537645217 0 0 0
1804 7 4.63703173814395 0.24188289955954162 7.702297926806812 0 0 0
1806 7 1.9015487711829895 1.2017754075073694 5.893667600532328 0 0 0
1808 7 0.76627912338497 1.1265351950123037 7.68320295058303 0 0 0
1810 7 2.006614505141768 0.5739499296879988 6.782132074061441 0 0 0
1812 7 1.3620380844682465 1.4622519174737931 6.749751393399172 0 0 0
1814 7 3.0699839481699285 1.2220939447395454 7.738019208173056 0 0 0
1816 7 0.7658325616244911 1.1586339210054453 5.8815170901037135 0 0 0
1818 7 1.458094613225635 0.24685575437673693 5.870692426309678 0 0 0
1820 7 1.3393066136185046 2.1135474859327124 5.755989866710022 0 0 0
1822 7 2.4240202689971677 2.1861087416661427 5.889667976280679 0 0 0
1824 7 3.601326421687405 2.206119861809251 5.841043510177723 0 0 0
1826 7 4.681612038933063 2.129936409487772 5.774446063264474 0 0 0
1828 7 0.769711665801379 0.47229146758885215 6.8016002681876016 0 0 0
1830 7 0.7302720648220845 2.389114398360707 6.610112766096427 0 0 0
1832 7 3.658879549894217 0.2418543624297699 5.889306801402807 0 0 0
1834 7 1.8623210774375247 2.380179371338905 6.786272313093373 0 0 0
1836 7 3.047841839156516 2.428931239200062 6.760812295637237 0 0 0
1838 7 4.044665527152995 2.479146757324005 6.772108969084788 0 0 0
1840 7 5.17643868159797 2.562934996004259 6.717053128558303 -1 0 0
1842 7 5.222056038347528 1.158400047225314 7.64344317232991 -1 0 0
1844 7 4.688452713679727 0.22391267639776383 5.833451743049753 0 0 0
1846 7 0.28441057019241683 2.1000858143281875 7.659655103163135 0 0 0
1848 7 1.3058700016075409 2.0216485455749953 7.6115354066363565 0 0 0
1850 7 2.520143619575527 2.1234989813713723 7.564047261037171 0 0 0
1852 7 3.6504625299100746 2.1734981035510734 7.711906773496538 0 0 0
1854 7 4.67769494113205 2.1105193774005135 7.694655215408694 0 0 0
1856 7 5.246479709757081 0.4984681212064708 6.727386727277336 -1 0 0
1858 7 4.78720169961193 1.4617413452937025 6.792725319269361 0 0 0
1860 7 2.5473269716583333 1.4419353095933536 6.720616852760337 0 0 0
1862 7 0.13830657489186074 0.23624687423714613 7.6507272144401055 0 0 0
1864 7 3.6295773240908287 1.5075885895190737 6.774454938192014 0 0 0
1866 7 3.0036552593115347 1.2508533420187267 5.821985206117841 0 0 0
1868 7 4.067676766507618 1.2577507576366502 5.792964149117873 0 0 0
1870 7 0.3947833650886957 1.4033929551898627 6.764272754734686 0 0 0
1872 7 1.908345460247456 1.113294909867059 7.6089191659064355 0 0 0
1874 7 5.140885627502526 1.1203795710691684 5.850396291651148 -1 0 0
1876 7 0.19276983719695306 2.0343830555464697 5.868952861389689 0 0 0
1878 7 4.114784062787469 1.1535383379892452 7.6881318338945235 0 0 0
1880 7 3.0226560832414933 0.5104265902562057 6.745530985998012 0 0 0
1882 7 2.5310238285294693 0.16814479479974262 5.744216361014425 0 0 0
1884 7 3.592591587543844 0.2492876951276433 7.6572872322997405 0 0 0
1886 7 2.533659496588768 0.21173656203376906 7.556116454916667 0 0 0
1888 7 1.4107480145585645 0.1499040630190713 7.691871709180837 0 0 0
1890 7 0.2886530839208692 0.2547093743901147 5.784897866665826 0 0 0
1892 7 1.838944753027874 5.688385596892924 3.133506010767706 0 0 0
1894 7 0.8314458471533175 4.219425098625898 0.5354653998144046 0 0 0
1896 7 4.233991585862106 5.634242962887075 4.929153640478962 0 0 0
1898 7 4.726499112753291 5.323922197118347 4.056780425331731 0 0 0
1900 7 0.8415503922832899 4.924997128879616 1.4612244093681408 0 0 0
1902 7 1.5048559849561827 3.334192729984778 0.4431862733653824 0 0 0
1904 7 0.26538978042676753 5.224821317962416 0.4436227913048789 0 0 0
1906 7 2.5677248047024928 3.4584033845413638 0.3977350459422121 0 0 0
1908 7 1.9272721543906344 4.31171362848503 0.5182512533568266 0 0 0
1910 7 3.6927456621381936 3.3606459478391915 0.4713533527458643 0 0 0
1912 7 0.8380568577127653 3.7876624255228335 3.1563995753407754 0 0 0
1914 7 4.703978974473668 3.340097475586764 0.34109820330183793 0 0 0
1916 7 4.141801751641616 4.303095637530186 0.46033450008259735 0 0 0
1918 7 0.24820587411978534 3.336865157663268 0.48576901586117205 0 0 0
1920 7 5.143437355220241 4.232674902528545 0.5030732734145337 0 0 0
1922 7 3.617075715602217 5.252262149990233 2.2415541683051816 0 0 0
1924 7 5.227783860610419 3.6886960482455495 3.221744335485166 -1 0 0
1926 7 0.9134388296065535 5.686936734678131 5.003372787580613 0 0 0
1928 7 3.055806178333548 3.669969861785047 3.077331235427674 0 0 0
1930 7 0.8141719014206131 5.646184017323753 3.1949099432310546 0 0 0
1932 7 0.3398884528300359 3.9639868322912184 1.3808814238030862 0 0 0
1934 7 1.388331592807602 3.5018276134619484 4.045619340563363 0 0 0
1936 7 1.445943604775453 3.9667660584633473 1.4127125166493275 0 0 0
1938 7 3.7384386480500753 4.694831134522336 5.005346955254034 0 0 0
1940 7 2.4590714128600553 3.9879205200062393 1.322816631540484 0 0 0
1942 7 1.4717930067156861 5.3370141282793115 4.037728882701401 0 0 0
1944 7 3.566262333395682 4.0074092162347394 1.365431597236795 0 0 0
1946 7 3.0752145339522703 3.0956139446760833 1.3866306834926898 0 0 0
1948 7 4.750658370406727 3.871118389760709 1.350358143078372 0 0 0
1950 7 0.8397204775935663 3.71951006622934 4.966655775928727 0 0 0
1952 7 0.4207654120807155 4.642102304859202 4.966432751687289 0 0 0
1954 7 2.5268624508096416 4.709352287472365 4.941610315139756 0 0 0
1956 7 3.6132995971504163 5.313606584284127 4.0579209376920335 0 0 0