 LAMMPS data file 

        2160  atoms
 8 atom types

    0.00000000       5.51124331      xlo xhi
    0.00000000       5.72745206      ylo yhi
    0.00000000      32.39936152      zlo zhi

 Atoms # atomic

    1       1        0.7320455814277715       0.4663421303475768       0.4847959278357561
    2       6        0.7320455814277715       0.4663421303475768      16.6844766890279566
    3       1        0.2345277977050896       1.4526958458976575       0.4424006391840066
    4       6        0.2345277977050896       1.4526958458976575      16.6420814003762096
    5       1        1.8541493683218293       0.4310254859109205       0.5193773598236332
    6       6        1.8541493683218293       0.4310254859109205      16.7190581210158342
    7       1        1.3265358551108439       1.3885633827878994       0.4247650041811113
    8       6        1.3265358551108439       1.3885633827878994      16.6244457653733129
    9       1        2.9693626033990577       0.5742421193318140       0.4320519317893779
   10       6        2.9693626033990577       0.5742421193318140      16.6317326929815792
   11       1        2.4512580238358783       1.4568986431968183       0.4861725094637864
   12       6        2.4512580238358783       1.4568986431968183      16.6858532706559863
   13       1        4.0919711168747579       0.5678096756619109       0.4285464680009057
   14       6        4.0919711168747579       0.5678096756619109      16.6282272291931079
   15       1        3.5771725045597500       1.4870551372119489       0.5010924071650523
   16       6        3.5771725045597500       1.4870551372119489      16.7007731683572551
   17       1        5.1571441167564664       0.4667331690927443       0.3818022592660887
   18       6        5.1571441167564664       0.4667331690927443      16.5814830204582897
   19       1        4.6887023277298230       1.4779888529750707       0.4044222229765945
   20       6        4.6887023277298230       1.4779888529750707      16.6041029841687973
   21       1        0.8205752735468904       2.4209884773269525       0.4240350055716455
   22       6        0.8205752735468904       2.4209884773269525      16.6237157667638478
   23       1        1.8273861748864244       2.3876301594999076       0.4768251120888796
   24       6        1.8273861748864244       2.3876301594999076      16.6765058732810800
   25       1        3.0086077568604574       2.3908036076507537       0.4459263981003895
   26       6        3.0086077568604574       2.3908036076507537      16.6456071592925916
   27       1        4.1449486766253196       2.3982516788994483       0.5471918089190332
   28       6        4.1449486766253196       2.3982516788994483      16.7468725701112362
   29       1        5.1546192784390188       2.5672960854034077       0.4736534233670802
   30       6        5.1546192784390188       2.5672960854034077      16.6733341845592804
   31       1        0.1474271812764157       0.8332633147748016       1.3176505188274164
   32       6        0.1474271812764157       0.8332633147748016      17.5173312800196186
   33       1        0.7985312314110947       1.8182254155065662       1.2922475899207211
   34       6        0.7985312314110947       1.8182254155065662      17.4919283511129215
   35       1        1.3649327006738277       0.6779078999966175       1.4799385352002918
   36       6        1.3649327006738277       0.6779078999966175      17.6796192963924952
   37       1        1.9140945287599349       1.6971473905239207       1.3426199345252783
   38       6        1.9140945287599349       1.6971473905239207      17.5423006957174792
   39       1        2.4144912388360567       0.7541475021401318       1.3038110386366115
   40       6        2.4144912388360567       0.7541475021401318      17.5034917998288115
   41       1        2.9817645788987028       1.7119844177160066       1.3747031243679111
   42       6        2.9817645788987028       1.7119844177160066      17.5743838855601133
   43       1        3.5622144524781709       0.7239359036404623       1.3095663457033593
   44       6        3.5622144524781709       0.7239359036404623      17.5092471068955611
   45       1        4.0301980604019612       1.8074773544808596       1.4160681877506880
   46       6        4.0301980604019612       1.8074773544808596      17.6157489489428905
   47       1        4.6367285430554857       0.8051926800726866       1.4057137892426601
   48       6        4.6367285430554857       0.8051926800726866      17.6053945504348626
   49       1        5.1298548839765257       1.8753494162590132       1.2831831198536254
   50       6        5.1298548839765257       1.8753494162590132      17.4828638810458266
   51       1        2.4315318138216733       2.1501299779810923       4.9722379030994768
   52       6        2.4315318138216733       2.1501299779810923      21.1719186642916775
   53       1        4.6334637359644697       0.0941226557346000       2.1748871553044080
   54       6        4.6334637359644697       0.0941226557346000      18.3745679164966091
   55       1        4.7296340593750710       2.0744544825859581       5.0175343794499829
   56       6        4.7296340593750710       2.0744544825859581      21.2172151406421854
   57       1        0.1917653455268130       0.2260673434548828       4.7998383071474882
   58       6        0.1917653455268130       0.2260673434548828      20.9995190683396906
   59       1        4.6265099921874624       0.1822829005599103       4.9112896132251436
   60       6        4.6265099921874624       0.1822829005599103      21.1109703744173451
   61       1        2.3976280931503622       0.1564155416872129       4.9737034867214014
   62       6        2.3976280931503622       0.1564155416872129      21.1733842479136030
   63       1        0.7915523835243040       1.1342289490911679       2.1831921172839026
   64       6        0.7915523835243040       1.1342289490911679      18.3828728784761033
   65       1        0.2473008772986952       2.6393641818377054       4.0476774326903939
   66       6        0.2473008772986952       2.6393641818377054      20.2473581938825973
   67       1        1.9422538062555932       1.0998980967404162       2.3310959788753260
   68       6        1.9422538062555932       1.0998980967404162      18.5307767400675267
   69       1        1.3180284577676122       2.8059078471512020       4.0360216680817329
   70       6        1.3180284577676122       2.8059078471512020      20.2357024292739354
   71       1        3.0541265521754606       1.1218532325542467       2.2427745125062581
   72       6        3.0541265521754606       1.1218532325542467      18.4424552736984602
   73       1        0.2699615075409791       2.7249436622638825       1.3302782054757083
   74       6        0.2699615075409791       2.7249436622638825      17.5299589666679090
   75       1        4.0861353186448648       1.1685788667360582       2.2837947324921339
   76       6        4.0861353186448648       1.1685788667360582      18.4834754936843346
   77       1        3.5717266449640630       2.1973213855885145       4.8491784935956224
   78       6        3.5717266449640630       2.1973213855885145      21.0488592547878248
   79       1        5.1853094842391885       1.2371512020910822       2.2725713842764197
   80       6        5.1853094842391885       1.2371512020910822      18.4722521454686230
   81       1        0.1450160694868541       2.1038784574246221       2.2223994894658725
   82       6        0.1450160694868541       2.1038784574246221      18.4220802506580732
   83       1        1.3116920388066355       2.0405134749795755       2.1824207798527961
   84       6        1.3116920388066355       2.0405134749795755      18.3821015410449959
   85       1        2.4157091513491875       2.0280794627075691       2.2328350569084914
   86       6        2.4157091513491875       2.0280794627075691      18.4325158181006934
   87       1        3.4531146532934911       2.0838794450174261       2.2561865058168737
   88       6        3.4531146532934911       2.0838794450174261      18.4558672670090758
   89       1        4.6133745961569099       2.1486832786828609       2.2257755115273476
   90       6        4.6133745961569099       2.1486832786828609      18.4254562727195506
   91       1        0.8373451371876226       0.5652149407922694       3.0887156571809875
   92       6        0.8373451371876226       0.5652149407922694      19.2883964183731891
   93       1        0.3205164814881498       1.4680584940720296       3.1547639432412389
   94       6        0.3205164814881498       1.4680584940720296      19.3544447044334404
   95       1        1.8796661987701457       0.5114653315653632       3.1889286609671688
   96       6        1.8796661987701457       0.5114653315653632      19.3886094221593694
   97       1        1.3620498848368459       1.4204294639279245       3.1288927897534724
   98       6        1.3620498848368459       1.4204294639279245      19.3285735509456735
   99       1        2.9653889607298778       0.4854702270312961       3.1069534084238914
  100       6        2.9653889607298778       0.4854702270312961      19.3066341696160926
  101       1        2.5109377156375481       1.4578328906313736       3.2012037992197930
  102       6        2.5109377156375481       1.4578328906313736      19.4008845604119955
  103       1        4.1655169903405644       0.5132723065277494       3.0998152230450953
  104       6        4.1655169903405644       0.5132723065277494      19.2994959842372964
  105       1        3.6083643390114863       1.4914081791848539       3.1314144679754512
  106       6        3.6083643390114863       1.4914081791848539      19.3310952291676514
  107       1        5.2428409249784531       0.4900091367860008       3.0600645637660153
  108       6        5.2428409249784531       0.4900091367860008      19.2597453249582173
  109       1        4.7302611234043539       1.3958166908024392       3.1600168504833581
  110       6        4.7302611234043539       1.3958166908024392      19.3596976116755606
  111       1        0.8044336732477171       2.3693919862824111       3.0798659037795622
  112       6        0.8044336732477171       2.3693919862824111      19.2795466649717646
  113       1        1.9475216851526722       2.3700278705677866       3.1204321130405894
  114       6        1.9475216851526722       2.3700278705677866      19.3201128742327910
  115       1        3.0394027904459957       2.3778281939366002       3.1529174553508668
  116       6        3.0394027904459957       2.3778281939366002      19.3525982165430683
  117       1        4.0989554782250677       2.4086186573913451       3.0916184986006825
  118       6        4.0989554782250677       2.4086186573913451      19.2912992597928827
  119       1        5.1442631945046697       2.3171205856338246       3.1510444769012396
  120       6        5.1442631945046697       2.3171205856338246      19.3507252380934425
  121       1        0.3149766040078281       0.8869312505858329       4.0119860971750985
  122       6        0.3149766040078281       0.8869312505858329      20.2116668583673018
  123       1        0.8530346221278222       1.8143242684850711       3.9897219742215881
  124       6        0.8530346221278222       1.8143242684850711      20.1894027354137897
  125       1        1.4207089322285262       0.8974664826693829       4.0304276893950419
  126       6        1.4207089322285262       0.8974664826693829      20.2301084505872453
  127       1        1.9580926151415954       1.8654391597867075       4.0911159228125573
  128       6        1.9580926151415954       1.8654391597867075      20.2907966840047607
  129       1        2.4318410613377406       0.8133680944513439       4.0348812077913383
  130       6        2.4318410613377406       0.8133680944513439      20.2345619689835416
  131       1        2.9952997829633281       1.7942409848687373       4.0916185415946016
  132       6        2.9952997829633281       1.7942409848687373      20.2912993027868040
  133       1        3.6146744060377145       0.8055900845429690       3.9540583260820021
  134       6        3.6146744060377145       0.8055900845429690      20.1537390872742037
  135       1        4.1677348427552987       1.8096602746651096       4.0346481161383094
  136       6        4.1677348427552987       1.8096602746651096      20.2343288773305119
  137       1        4.7420531641305326       0.7764870523146752       3.9485768022002370
  138       6        4.7420531641305326       0.7764870523146752      20.1482575633924377
  139       1        5.1686746838800088       1.8083400235364755       4.1290128558644339
  140       6        5.1686746838800088       1.8083400235364755      20.3286936170566364
  141       1        0.2773601015736264       0.2001380335396018       2.1894242095672651
  142       6        0.2773601015736264       0.2001380335396018      18.3891049707594654
  143       1        2.3619195328274074       2.6662770217521277       1.3698910918751930
  144       6        2.3619195328274074       2.6662770217521277      17.5695718530673943
  145       1        1.3425439459672261       2.7139138067972577       1.3239727415745328
  146       6        1.3425439459672261       2.7139138067972577      17.5236535027667344
  147       1        1.3380283190540228       0.1125433941382809       2.2988865523112345
  148       6        1.3380283190540228       0.1125433941382809      18.4985673135034361
  149       1        3.5971941164303431       2.7544321781236070       3.9828888169835923
  150       6        3.5971941164303431       2.7544321781236070      20.1825695781757943
  151       1        2.3708238459217883       0.2351646416363666       2.2842820576965019
  152       6        2.3708238459217883       0.2351646416363666      18.4839628188887026
  153       1        0.8645112863963725       1.1724796320608148       5.0097691347275699
  154       6        0.8645112863963725       1.1724796320608148      21.2094498959197715
  155       1        2.4180872702311667       2.7690085322727582       4.0455797161332310
  156       6        2.4180872702311667       2.7690085322727582      20.2452604773254308
  157       1        1.8686952945184001       1.2226387445945182       4.8419339672647457
  158       6        1.8686952945184001       1.2226387445945182      21.0416147284569490
  159       1        4.5549742485318356       2.7449894924364138       1.4280659873924948
  160       6        4.5549742485318356       2.7449894924364138      17.6277467485846948
  161       1        2.9537655062197921       1.0955147437467676       4.8436529296538087
  162       6        2.9537655062197921       1.0955147437467676      21.0433336908460120
  163       1        3.5451742893826728       2.7616330652322763       1.2955445778838477
  164       6        3.5451742893826728       2.7616330652322763      17.4952253390760504
  165       1        4.0451108861382181       1.1467938960231849       4.8795850497973206
  166       6        4.0451108861382181       1.1467938960231849      21.0792658109895221
  167       1        1.3943302026238305       2.0966930032107363       4.9754553781097810
  168       6        1.3943302026238305       2.0966930032107363      21.1751361393019835
  169       1        5.2197731307542021       1.1359929717722357       4.9428685321674868
  170       6        5.2197731307542021       1.1359929717722357      21.1425492933596892
  171       1        0.2752895327767707       2.0478835482669981       5.0016839053120838
  172       6        0.2752895327767707       2.0478835482669981      21.2013646665042863
  173       1        3.4328102277457755       0.1834293164042421       4.8956328280244508
  174       6        3.4328102277457755       0.1834293164042421      21.0953135892166515
  175       1        3.5170282672838846       0.1445019940902963       2.2724828078710488
  176       6        3.5170282672838846       0.1445019940902963      18.4721635690632517
  177       1        1.3179284113038290       0.2608576996157620       4.9580367255968678
  178       6        1.3179284113038290       0.2608576996157620      21.1577174867890676
  179       1        4.6859020130397493       2.7817722372854057       4.0678812957939705
  180       6        4.6859020130397493       2.7817722372854057      20.2675620569861721
  181       1        0.9302729448417280       0.5392336874967965       5.8981039386450043
  182       6        0.9302729448417280       0.5392336874967965      22.0977846998372058
  183       1        0.2461320357608184       1.4111680285157291       5.8420218520085978
  184       6        0.2461320357608184       1.4111680285157291      22.0417026132007976
  185       1        1.9310492771457621       0.5337625402883880       5.7975063405017604
  186       6        1.9310492771457621       0.5337625402883880      21.9971871016939602
  187       1        1.3799314709082064       1.4662712384769974       5.8982070883264948
  188       6        1.3799314709082064       1.4662712384769974      22.0978878495186954
  189       1        2.9853967790773783       0.5197023142545377       5.8219547486134609
  190       6        2.9853967790773783       0.5197023142545377      22.0216355098056624
  191       1        2.5858656121990573       1.5485433539924844       5.8004419007383152
  192       6        2.5858656121990573       1.5485433539924844      22.0001226619305186
  193       1        4.0941413873712298       0.4956979331497787       5.7375671055132473
  194       6        4.0941413873712298       0.4956979331497787      21.9372478667054480
  195       1        3.6443568574925411       1.3956855358667506       5.7971234137966450
  196       6        3.6443568574925411       1.3956855358667506      21.9968041749888457
  197       1        5.1731197463842982       0.4558252721839910       5.8610120836671555
  198       6        5.1731197463842982       0.4558252721839910      22.0606928448593571
  199       1        4.6694588973677442       1.4034580140287360       5.8992220894029188
  200       6        4.6694588973677442       1.4034580140287360      22.0989028505951204
  201       1        0.8157596849946698       2.3764470270460123       5.8100897753648253
  202       6        0.8157596849946698       2.3764470270460123      22.0097705365570278
  203       1        2.0131386354411220       2.4073877146136726       5.8499460656711015
  204       6        2.0131386354411220       2.4073877146136726      22.0496268268633031
  205       1        3.0930197985893129       2.4098884653011607       5.8111361515771955
  206       6        3.0930197985893129       2.4098884653011607      22.0108169127693962
  207       1        4.1924743491869272       2.4387287497413910       5.8509651478951623
  208       6        4.1924743491869272       2.4387287497413910      22.0506459090873648
  209       1        5.2542156364941386       2.3042137854506271       5.8987501353230281
  210       6        5.2542156364941386       2.3042137854506271      22.0984308965152287
  211       1        0.3365159030982171       0.7835265820077391       6.7874168769036780
  212       6        0.3365159030982171       0.7835265820077391      22.9870976380958787
  213       1        0.8554483113781329       1.7081102571967488       6.7558674596207640
  214       6        0.8554483113781329       1.7081102571967488      22.9555482208129646
  215       1        1.4747172860939621       0.8326281471225460       6.7913518606144354
  216       6        1.4747172860939621       0.8326281471225460      22.9910326218066388
  217       1        1.9661416664797673       1.7454781972309574       6.7503655134190677
  218       6        1.9661416664797673       1.7454781972309574      22.9500462746112674
  219       1        2.4513029201936130       0.7560420540117737       6.7868117729644384
  220       6        2.4513029201936130       0.7560420540117737      22.9864925341566391
  221       1        2.9456978100966977       1.7408587314798960       6.7490729001344318
  222       6        2.9456978100966977       1.7408587314798960      22.9487536613266343
  223       1        3.5499188010238365       0.7950400983391774       6.6770437329374523
  224       6        3.5499188010238365       0.7950400983391774      22.8767244941296539
  225       1        3.9859285217133831       1.7504670131024980       6.8519822751094592
  226       6        3.9859285217133831       1.7504670131024980      23.0516630363016617
  227       1        4.6196435453373370       0.8624531626356048       6.7642070851746281
  228       6        4.6196435453373370       0.8624531626356048      22.9638878463668306
  229       1        5.3014077153793213       1.6420512526973483       6.7718159493563892
  230       6        5.3014077153793213       1.6420512526973483      22.9714967105485925
  231       1        1.4567495393014243       0.1041657197990377       7.7201042660245944
  232       6        1.4567495393014243       0.1041657197990377      23.9197850272167969
  233       1        0.2840959404292694       0.0982235775758429       7.6309660070095013
  234       6        0.2840959404292694       0.0982235775758429      23.8306467682017029
  235       1        0.8479495896750989       1.1320657267259300       7.6867793303134677
  236       6        0.8479495896750989       1.1320657267259300      23.8864600915056684
  237       1        1.9340698667335774       1.0911417889848707       7.7324935469106446
  238       6        1.9340698667335774       1.0911417889848707      23.9321743081028444
  239       1        3.0427509531707044       0.9932975699305354       7.6790384306070099
  240       6        3.0427509531707044       0.9932975699305354      23.8787191917992132
  241       1        1.2984807684273150       2.6531560763828290       6.7166234238913711
  242       6        1.2984807684273150       2.6531560763828290      22.9163041850835718
  243       1        4.1416412110192207       1.0878262792947440       7.6499357089933202
  244       6        4.1416412110192207       1.0878262792947440      23.8496164701855236
  245       1        5.1908259113741888       1.0260845881581557       7.7249873355231529
  246       6        5.1908259113741888       1.0260845881581557      23.9246680967153544
  247       1        0.2655742925304067       2.0562631137739906       7.6913772448537241
  248       6        0.2655742925304067       2.0562631137739906      23.8910580060459239
  249       1        1.3903481650084253       2.0130855064777649       7.6813217820333959
  250       6        1.3903481650084253       2.0130855064777649      23.8810025432255983
  251       1        2.4510014205194586       2.0032785705967062       7.6253005071279247
  252       6        2.4510014205194586       2.0032785705967062      23.8249812683201263
  253       1        3.5303628701810221       1.9314235484979645       7.7355484880897096
  254       6        3.5303628701810221       1.9314235484979645      23.9352292492819103
  255       1        4.7316072768258390       2.0659833134916967       7.5614048611854274
  256       6        4.7316072768258390       2.0659833134916967      23.7610856223776281
  257       1        2.5024399786379457       2.6387448499505655       6.7928444947438971
  258       6        2.5024399786379457       2.6387448499505655      22.9925252559360978
  259       1        3.5676027590393846       2.6529498202586246       6.7251926417044965
  260       6        3.5676027590393846       2.6529498202586246      22.9248734028966972
  261       1        3.5828600130315866       0.1075402872320005       7.5726671248476221
  262       6        3.5828600130315866       0.1075402872320005      23.7723478860398245
  263       1        4.6516415034227192       2.6781742246878886       6.7185374212449354
  264       6        4.6516415034227192       2.6781742246878886      22.9182181824371369
  265       1        4.6282621523197163       0.1113916777416559       7.7365103734306677
  266       6        4.6282621523197163       0.1113916777416559      23.9361911346228702
  267       1        0.2537821110415932       2.6779872192741259       6.7845098546971867
  268       6        0.2537821110415932       2.6779872192741259      22.9841906158893892
  269       1        2.5010654913596282       0.0449581396457901       7.6671512430118867
  270       6        2.5010654913596282       0.0449581396457901      23.8668320042040882
  271       1        0.2866764930186457       3.3612767311865057       0.4530983328131812
  272       6        0.2866764930186457       3.3612767311865057      16.6527790940053819
  273       1        1.4344309486805331       3.4473618422231285       0.4785096395725066
  274       6        1.4344309486805331       3.4473618422231285      16.6781904007647093
  275       1        2.4984332215184604       3.3595304914232300       0.5984490017473630
  276       6        2.4984332215184604       3.3595304914232300      16.7981297629395634
  277       1        3.5676717017612298       3.3526524156246778       0.4597562330273041
  278       6        3.5676717017612298       3.3526524156246778      16.6594369942195044
  279       1        4.5943220330423280       3.4284665633838300       0.4286514875890034
  280       6        4.5943220330423280       3.4284665633838300      16.6283322487812057
  281       1        0.7922040509709732       4.3856091150983891       0.4088459233034966
  282       6        0.7922040509709732       4.3856091150983891      16.6085266844956969
  283       1        0.2547522628169837       5.2089873481193685       0.3403783246360854
  284       6        0.2547522628169837       5.2089873481193685      16.5400590858282861
  285       1        1.9880317665257510       4.3074569840842400       0.5219072257498999
  286       6        1.9880317665257510       4.3074569840842400      16.7215879869421009
  287       1        1.3632810400164070       5.2410289394951448       0.5544316377073414
  288       6        1.3632810400164070       5.2410289394951448      16.7541123988995437
  289       1        3.0104582976411471       4.2384551588932693       0.4323994245799362
  290       6        3.0104582976411471       4.2384551588932693      16.6320801857721392
  291       1        2.4776284050803596       5.2363812104620333       0.4759185571658645
  292       6        2.4776284050803596       5.2363812104620333      16.6755993183580671
  293       1        4.1010162124575427       4.3598877555039932       0.3429125336844378
  294       6        4.1010162124575427       4.3598877555039932      16.5425932948766388
  295       1        3.5099921188806773       5.3176390516479932       0.5052495545365988
  296       6        3.5099921188806773       5.3176390516479932      16.7049303157287987
  297       1        5.2608163511468797       4.2560389299848547       0.4612187927804087
  298       6        5.2608163511468797       4.2560389299848547      16.6608995539726088
  299       1        4.7282214750070217       5.1894523195389723       0.3645422458524872
  300       6        4.7282214750070217       5.1894523195389723      16.5642230070446885
  301       1        0.7666835392038093       3.6695803538835068       1.3791739606339870
  302       6        0.7666835392038093       3.6695803538835068      17.5788547218261897
  303       1        1.9583939116403069       3.7376601075888369       1.3938451988778624
  304       6        1.9583939116403069       3.7376601075888369      17.5935259600700640
  305       1        3.0589461014895405       3.6816829989014668       1.3842328490887361
  306       6        3.0589461014895405       3.6816829989014668      17.5839136102809377
  307       1        4.1050652104970906       3.7092033057048330       1.3634179922936978
  308       6        4.1050652104970906       3.7092033057048330      17.5630987534858996
  309       1        5.1328478303777807       3.6841219234216500       1.4193972269805459
  310       6        5.1328478303777807       3.6841219234216500      17.6190779881727480
  311       1        0.2893898400708974       4.5897546750747438       1.3912096662273463
  312       6        0.2893898400708974       4.5897546750747438      17.5908904274195486
  313       1        1.8451308473882970       3.0355716112750208       4.9506040152300557
  314       6        1.8451308473882970       3.0355716112750208      21.1502847764222572
  315       1        1.3903851728210903       4.6297038043758123       1.5037169884548278
  316       6        1.3903851728210903       4.6297038043758123      17.7033977496470278
  317       1        0.7823096235959668       3.0031886140664756       4.9832750750973327
  318       6        0.7823096235959668       3.0031886140664756      21.1829558362895334
  319       1        2.5221424061597024       4.6041857132888726       1.5218915384782195
  320       6        2.5221424061597024       4.6041857132888726      17.7215722996704201
  321       1        5.1614471516114175       4.8759837628494305       4.8892086547999538
  322       6        5.1614471516114175       4.8759837628494305      21.0888894159921563
  323       1        3.6104293314098403       4.6153585256904419       1.3354210150852543
  324       6        3.6104293314098403       4.6153585256904419      17.5351017762774575
  325       1        2.8674961762765383       5.6388966607241864       4.0617201434339636
  326       6        2.8674961762765383       5.6388966607241864      20.2614009046261643
  327       1        4.6319587089254934       4.6655594399619016       1.3309744851183114
  328       6        4.6319587089254934       4.6655594399619016      17.5306552463105128
  329       1        1.8724275256086957       5.5165742578636419       1.3936131333669566
  330       6        1.8724275256086957       5.5165742578636419      17.5932938945591566
  331       1        4.1227030287397355       3.0759456086646879       2.2809532330586313