 LAMMPS lj fcc 111 crystal

        5184 atoms
           1 atom types

   0.00000000       13.725946732576739      xlo xhi
   0.00000000       14.558565019215520      ylo yhi
   0.00000000       27.451893465153475      zlo zhi

 Atoms

           1           1  0.85787167078604631       0.40440458386709777       0.28595722359534870     
           2           1   2.0017005651674413       0.40440458386709777       0.28595722359534870     
           3           1   3.1455294595488361       0.40440458386709777       0.28595722359534870     
           4           1   4.2893583539302309       0.40440458386709777       0.28595722359534870     
           5           1   5.4331872483116266       0.40440458386709777       0.28595722359534870     
           6           1   6.5770161426930214       0.40440458386709777       0.28595722359534870     
           7           1   7.7208450370744162       0.40440458386709777       0.28595722359534870     
           8           1   8.8646739314558118       0.40440458386709777       0.28595722359534870     
           9           1   10.008502825837207       0.40440458386709777       0.28595722359534870     
          10           1   11.152331720218601       0.40440458386709777       0.28595722359534870     
          11           1   12.296160614599996       0.40440458386709777       0.28595722359534870     
          12           1   13.439989508981391       0.40440458386709777       0.28595722359534870     
          13           1  0.85787167078604631        2.0220229193354888       0.28595722359534870     
          14           1   2.0017005651674413        2.0220229193354888       0.28595722359534870     
          15           1   3.1455294595488361        2.0220229193354888       0.28595722359534870     
          16           1   4.2893583539302309        2.0220229193354888       0.28595722359534870     
          17           1   5.4331872483116266        2.0220229193354888       0.28595722359534870     
          18           1   6.5770161426930214        2.0220229193354888       0.28595722359534870     
          19           1   7.7208450370744162        2.0220229193354888       0.28595722359534870     
          20           1   8.8646739314558118        2.0220229193354888       0.28595722359534870     
          21           1   10.008502825837207        2.0220229193354888       0.28595722359534870     
          22           1   11.152331720218601        2.0220229193354888       0.28595722359534870     
          23           1   12.296160614599996        2.0220229193354888       0.28595722359534870     
          24           1   13.439989508981391        2.0220229193354888       0.28595722359534870     
          25           1  0.85787167078604631        3.6396412548038799       0.28595722359534870     
          26           1   2.0017005651674413        3.6396412548038799       0.28595722359534870     
          27           1   3.1455294595488361        3.6396412548038799       0.28595722359534870     
          28           1   4.2893583539302309        3.6396412548038799       0.28595722359534870     
          29           1   5.4331872483116266        3.6396412548038799       0.28595722359534870     
          30           1   6.5770161426930214        3.6396412548038799       0.28595722359534870     
          31           1   7.7208450370744162        3.6396412548038799       0.28595722359534870     
          32           1   8.8646739314558118        3.6396412548038799       0.28595722359534870     
          33           1   10.008502825837207        3.6396412548038799       0.28595722359534870     
          34           1   11.152331720218601        3.6396412548038799       0.28595722359534870     
          35           1   12.296160614599996        3.6396412548038799       0.28595722359534870     
          36           1   13.439989508981391        3.6396412548038799       0.28595722359534870     
          37           1  0.85787167078604631        5.2572595902722714       0.28595722359534870     
          38           1   2.0017005651674413        5.2572595902722714       0.28595722359534870     
          39           1   3.1455294595488361        5.2572595902722714       0.28595722359534870     
          40           1   4.2893583539302309        5.2572595902722714       0.28595722359534870     
          41           1   5.4331872483116266        5.2572595902722714       0.28595722359534870     
          42           1   6.5770161426930214        5.2572595902722714       0.28595722359534870     
          43           1   7.7208450370744162        5.2572595902722714       0.28595722359534870     
          44           1   8.8646739314558118        5.2572595902722714       0.28595722359534870     
          45           1   10.008502825837207        5.2572595902722714       0.28595722359534870     
          46           1   11.152331720218601        5.2572595902722714       0.28595722359534870     
          47           1   12.296160614599996        5.2572595902722714       0.28595722359534870     
          48           1   13.439989508981391        5.2572595902722714       0.28595722359534870     
          49           1  0.85787167078604631        6.8748779257406625       0.28595722359534870     
          50           1   2.0017005651674413        6.8748779257406625       0.28595722359534870     
          51           1   3.1455294595488361        6.8748779257406625       0.28595722359534870     
          52           1   4.2893583539302309        6.8748779257406625       0.28595722359534870     
          53           1   5.4331872483116266        6.8748779257406625       0.28595722359534870     
          54           1   6.5770161426930214        6.8748779257406625       0.28595722359534870     
          55           1   7.7208450370744162        6.8748779257406625       0.28595722359534870     
          56           1   8.8646739314558118        6.8748779257406625       0.28595722359534870     
          57           1   10.008502825837207        6.8748779257406625       0.28595722359534870     
          58           1   11.152331720218601        6.8748779257406625       0.28595722359534870     
          59           1   12.296160614599996        6.8748779257406625       0.28595722359534870     
          60           1   13.439989508981391        6.8748779257406625       0.28595722359534870     
          61           1  0.85787167078604631        8.4924962612090535       0.28595722359534870     
          62           1   2.0017005651674413        8.4924962612090535       0.28595722359534870     
          63           1   3.1455294595488361        8.4924962612090535       0.28595722359534870     
          64           1   4.2893583539302309        8.4924962612090535       0.28595722359534870     
          65           1   5.4331872483116266        8.4924962612090535       0.28595722359534870     
          66           1   6.5770161426930214        8.4924962612090535       0.28595722359534870     
          67           1   7.7208450370744162        8.4924962612090535       0.28595722359534870     
          68           1   8.8646739314558118        8.4924962612090535       0.28595722359534870     
          69           1   10.008502825837207        8.4924962612090535       0.28595722359534870     
          70           1   11.152331720218601        8.4924962612090535       0.28595722359534870     
          71           1   12.296160614599996        8.4924962612090535       0.28595722359534870     
          72           1   13.439989508981391        8.4924962612090535       0.28595722359534870     
          73           1  0.85787167078604631        10.110114596677445       0.28595722359534870     
          74           1   2.0017005651674413        10.110114596677445       0.28595722359534870     
          75           1   3.1455294595488361        10.110114596677445       0.28595722359534870     
          76           1   4.2893583539302309        10.110114596677445       0.28595722359534870     
          77           1   5.4331872483116266        10.110114596677445       0.28595722359534870     
          78           1   6.5770161426930214        10.110114596677445       0.28595722359534870     
          79           1   7.7208450370744162        10.110114596677445       0.28595722359534870     
          80           1   8.8646739314558118        10.110114596677445       0.28595722359534870     
          81           1   10.008502825837207        10.110114596677445       0.28595722359534870     
          82           1   11.152331720218601        10.110114596677445       0.28595722359534870     
          83           1   12.296160614599996        10.110114596677445       0.28595722359534870     
          84           1   13.439989508981391        10.110114596677445       0.28595722359534870     
          85           1  0.85787167078604631        11.727732932145836       0.28595722359534870     
          86           1   2.0017005651674413        11.727732932145836       0.28595722359534870     
          87           1   3.1455294595488361        11.727732932145836       0.28595722359534870     
          88           1   4.2893583539302309        11.727732932145836       0.28595722359534870     
          89           1   5.4331872483116266        11.727732932145836       0.28595722359534870     
          90           1   6.5770161426930214        11.727732932145836       0.28595722359534870     
          91           1   7.7208450370744162        11.727732932145836       0.28595722359534870     
          92           1   8.8646739314558118        11.727732932145836       0.28595722359534870     
          93           1   10.008502825837207        11.727732932145836       0.28595722359534870     
          94           1   11.152331720218601        11.727732932145836       0.28595722359534870     
          95           1   12.296160614599996        11.727732932145836       0.28595722359534870     
          96           1   13.439989508981391        11.727732932145836       0.28595722359534870     
          97           1  0.85787167078604631        13.345351267614227       0.28595722359534870     
          98           1   2.0017005651674413        13.345351267614227       0.28595722359534870     
          99           1   3.1455294595488361        13.345351267614227       0.28595722359534870     
         100           1   4.2893583539302309        13.345351267614227       0.28595722359534870     
         101           1   5.4331872483116266        13.345351267614227       0.28595722359534870     
         102           1   6.5770161426930214        13.345351267614227       0.28595722359534870     
         103           1   7.7208450370744162        13.345351267614227       0.28595722359534870     
         104           1   8.8646739314558118        13.345351267614227       0.28595722359534870     
         105           1   10.008502825837207        13.345351267614227       0.28595722359534870     
         106           1   11.152331720218601        13.345351267614227       0.28595722359534870     
         107           1   12.296160614599996        13.345351267614227       0.28595722359534870     
         108           1   13.439989508981391        13.345351267614227       0.28595722359534870     
         109           1  0.28595722359534875        1.2132137516012933       0.85787167078604609     
         110           1   1.4297861179767437        1.2132137516012933       0.85787167078604609     
         111           1   2.5736150123581387        1.2132137516012933       0.85787167078604609     
         112           1   3.7174439067395340        1.2132137516012933       0.85787167078604609     
         113           1   4.8612728011209292        1.2132137516012933       0.85787167078604609     
         114           1   6.0051016955023240        1.2132137516012933       0.85787167078604609     
         115           1   7.1489305898837188        1.2132137516012933       0.85787167078604609     
         116           1   8.2927594842651136        1.2132137516012933       0.85787167078604609     
         117           1   9.4365883786465083        1.2132137516012933       0.85787167078604609     
         118           1   10.580417273027903        1.2132137516012933       0.85787167078604609     
         119           1   11.724246167409300        1.2132137516012933       0.85787167078604609     
         120           1   12.868075061790694        1.2132137516012933       0.85787167078604609     
         121           1  0.28595722359534875        2.8308320870696844       0.85787167078604609     
         122           1   1.4297861179767437        2.8308320870696844       0.85787167078604609     
         123           1   2.5736150123581387        2.8308320870696844       0.85787167078604609     
         124           1   3.7174439067395340        2.8308320870696844       0.85787167078604609     
         125           1   4.8612728011209292        2.8308320870696844       0.85787167078604609     
         126           1   6.0051016955023240        2.8308320870696844       0.85787167078604609     
         127           1   7.1489305898837188        2.8308320870696844       0.85787167078604609     
         128           1   8.2927594842651136        2.8308320870696844       0.85787167078604609     
         129           1   9.4365883786465083        2.8308320870696844       0.85787167078604609     
         130           1   10.580417273027903        2.8308320870696844       0.85787167078604609     
         131           1   11.724246167409300        2.8308320870696844       0.85787167078604609     
         132           1   12.868075061790694        2.8308320870696844       0.85787167078604609     
         133           1  0.28595722359534875        4.4484504225380750       0.85787167078604609     
         134           1   1.4297861179767437        4.4484504225380750       0.85787167078604609     
         135           1   2.5736150123581387        4.4484504225380750       0.85787167078604609     
         136           1   3.7174439067395340        4.4484504225380750       0.85787167078604609     
         137           1   4.8612728011209292        4.4484504225380750       0.85787167078604609     
         138           1   6.0051016955023240        4.4484504225380750       0.85787167078604609     
         139           1   7.1489305898837188        4.4484504225380750       0.85787167078604609     
         140           1   8.2927594842651136        4.4484504225380750       0.85787167078604609     
         141           1   9.4365883786465083        4.4484504225380750       0.85787167078604609     
         142           1   10.580417273027903        4.4484504225380750       0.85787167078604609     
         143           1   11.724246167409300        4.4484504225380750       0.85787167078604609     
         144           1   12.868075061790694        4.4484504225380750       0.85787167078604609     
         145           1  0.28595722359534875        6.0660687580064661       0.85787167078604609     
         146           1   1.4297861179767437        6.0660687580064661       0.85787167078604609     
         147           1   2.5736150123581387        6.0660687580064661       0.85787167078604609     
         148           1   3.7174439067395340        6.0660687580064661       0.85787167078604609     
         149           1   4.8612728011209292        6.0660687580064661       0.85787167078604609     
         150           1   6.0051016955023240        6.0660687580064661       0.85787167078604609     
         151           1   7.1489305898837188        6.0660687580064661       0.85787167078604609     
         152           1   8.2927594842651136        6.0660687580064661       0.85787167078604609     
         153           1   9.4365883786465083        6.0660687580064661       0.85787167078604609     
         154           1   10.580417273027903        6.0660687580064661       0.85787167078604609     
         155           1   11.724246167409300        6.0660687580064661       0.85787167078604609     
         156           1   12.868075061790694        6.0660687580064661       0.85787167078604609     
         157           1  0.28595722359534875        7.6836870934748571       0.85787167078604609     
         158           1   1.4297861179767437        7.6836870934748571       0.85787167078604609     
         159           1   2.5736150123581387        7.6836870934748571       0.85787167078604609     
         160           1   3.7174439067395340        7.6836870934748571       0.85787167078604609     
         161           1   4.8612728011209292        7.6836870934748571       0.85787167078604609     
         162           1   6.0051016955023240        7.6836870934748571       0.85787167078604609     
         163           1   7.1489305898837188        7.6836870934748571       0.85787167078604609     
         164           1   8.2927594842651136        7.6836870934748571       0.85787167078604609     
         165           1   9.4365883786465083        7.6836870934748571       0.85787167078604609     
         166           1   10.580417273027903        7.6836870934748571       0.85787167078604609     
         167           1   11.724246167409300        7.6836870934748571       0.85787167078604609     
         168           1   12.868075061790694        7.6836870934748571       0.85787167078604609     
         169           1  0.28595722359534875        9.3013054289432482       0.85787167078604609     
         170           1   1.4297861179767437        9.3013054289432482       0.85787167078604609     
         171           1   2.5736150123581387        9.3013054289432482       0.85787167078604609     
         172           1   3.7174439067395340        9.3013054289432482       0.85787167078604609     
         173           1   4.8612728011209292        9.3013054289432482       0.85787167078604609     
         174           1   6.0051016955023240        9.3013054289432482       0.85787167078604609     
         175           1   7.1489305898837188        9.3013054289432482       0.85787167078604609     
         176           1   8.2927594842651136        9.3013054289432482       0.85787167078604609     
         177           1   9.4365883786465083        9.3013054289432482       0.85787167078604609     
         178           1   10.580417273027903        9.3013054289432482       0.85787167078604609     
         179           1   11.724246167409300        9.3013054289432482       0.85787167078604609     
         180           1   12.868075061790694        9.3013054289432482       0.85787167078604609     
         181           1  0.28595722359534875        10.918923764411639       0.85787167078604609     
         182           1   1.4297861179767437        10.918923764411639       0.85787167078604609     
         183           1   2.5736150123581387        10.918923764411639       0.85787167078604609     
         184           1   3.7174439067395340        10.918923764411639       0.85787167078604609     
         185           1   4.8612728011209292        10.918923764411639       0.85787167078604609     
         186           1   6.0051016955023240        10.918923764411639       0.85787167078604609     
         187           1   7.1489305898837188        10.918923764411639       0.85787167078604609     
         188           1   8.2927594842651136        10.918923764411639       0.85787167078604609     
         189           1   9.4365883786465083        10.918923764411639       0.85787167078604609     
         190           1   10.580417273027903        10.918923764411639       0.85787167078604609     
         191           1   11.724246167409300        10.918923764411639       0.85787167078604609     
         192           1   12.868075061790694        10.918923764411639       0.85787167078604609     
         193           1  0.28595722359534875        12.536542099880030       0.85787167078604609     
         194           1   1.4297861179767437        12.536542099880030       0.85787167078604609     
         195           1   2.5736150123581387        12.536542099880030       0.85787167078604609     
         196           1   3.7174439067395340        12.536542099880030       0.85787167078604609     
         197           1   4.8612728011209292        12.536542099880030       0.85787167078604609     
         198           1   6.0051016955023240        12.536542099880030       0.85787167078604609     
         199           1   7.1489305898837188        12.536542099880030       0.85787167078604609     
         200           1   8.2927594842651136        12.536542099880030       0.85787167078604609     
         201           1   9.4365883786465083        12.536542099880030       0.85787167078604609     
         202           1   10.580417273027903        12.536542099880030       0.85787167078604609     
         203           1   11.724246167409300        12.536542099880030       0.85787167078604609     
         204           1   12.868075061790694        12.536542099880030       0.85787167078604609     
         205           1  0.28595722359534875        14.154160435348421       0.85787167078604609     
         206           1   1.4297861179767437        14.154160435348421       0.85787167078604609     
         207           1   2.5736150123581387        14.154160435348421       0.85787167078604609     
         208           1   3.7174439067395340        14.154160435348421       0.85787167078604609     
         209           1   4.8612728011209292        14.154160435348421       0.85787167078604609     
         210           1   6.0051016955023240        14.154160435348421       0.85787167078604609     
         211           1   7.1489305898837188        14.154160435348421       0.85787167078604609     
         212           1   8.2927594842651136        14.154160435348421       0.85787167078604609     
         213           1   9.4365883786465083        14.154160435348421       0.85787167078604609     
         214           1   10.580417273027903        14.154160435348421       0.85787167078604609     
         215           1   11.724246167409300        14.154160435348421       0.85787167078604609     
         216           1   12.868075061790694        14.154160435348421       0.85787167078604609     
         217           1  0.85787167078604631       0.40440458386709777        1.4297861179767435     
         218           1   2.0017005651674413       0.40440458386709777        1.4297861179767435     
         219           1   3.1455294595488361       0.40440458386709777        1.4297861179767435     
         220           1   4.2893583539302309       0.40440458386709777        1.4297861179767435     
         221           1   5.4331872483116266       0.40440458386709777        1.4297861179767435     
         222           1   6.5770161426930214       0.40440458386709777        1.4297861179767435     
         223           1   7.7208450370744162       0.40440458386709777        1.4297861179767435     
         224           1   8.8646739314558118       0.40440458386709777        1.4297861179767435     
         225           1   10.008502825837207       0.40440458386709777        1.4297861179767435     
         226           1   11.152331720218601       0.40440458386709777        1.4297861179767435     
         227           1   12.296160614599996       0.40440458386709777        1.4297861179767435     
         228           1   13.439989508981391       0.40440458386709777        1.4297861179767435     
         229           1  0.85787167078604631        2.0220229193354888        1.4297861179767435     
         230           1   2.0017005651674413        2.0220229193354888        1.4297861179767435     
         231           1   3.1455294595488361        2.0220229193354888        1.4297861179767435     
         232           1   4.2893583539302309        2.0220229193354888        1.4297861179767435     
         233           1   5.4331872483116266        2.0220229193354888        1.4297861179767435     
         234           1   6.5770161426930214        2.0220229193354888        1.4297861179767435     
         235           1   7.7208450370744162        2.0220229193354888        1.4297861179767435     
         236           1   8.8646739314558118        2.0220229193354888        1.4297861179767435     
         237           1   10.008502825837207        2.0220229193354888        1.4297861179767435     
         238           1   11.152331720218601        2.0220229193354888        1.4297861179767435     
         239           1   12.296160614599996        2.0220229193354888        1.4297861179767435     
         240           1   13.439989508981391        2.0220229193354888        1.4297861179767435     
         241           1  0.85787167078604631        3.6396412548038799        1.4297861179767435     
         242           1   2.0017005651674413        3.6396412548038799        1.4297861179767435     
         243           1   3.1455294595488361        3.6396412548038799        1.4297861179767435     
         244           1   4.2893583539302309        3.6396412548038799        1.4297861179767435     
         245           1   5.4331872483116266        3.6396412548038799        1.4297861179767435     
         246           1   6.5770161426930214        3.6396412548038799        1.4297861179767435     
         247           1   7.7208450370744162        3.6396412548038799        1.4297861179767435     
         248           1   8.8646739314558118        3.6396412548038799        1.4297861179767435     
         249           1   10.008502825837207        3.6396412548038799        1.4297861179767435     
         250           1   11.152331720218601        3.6396412548038799        1.4297861179767435     
         251           1   12.296160614599996        3.6396412548038799        1.4297861179767435     
         252           1   13.439989508981391        3.6396412548038799        1.4297861179767435     
         253           1  0.85787167078604631        5.2572595902722714        1.4297861179767435     
         254           1   2.0017005651674413        5.2572595902722714        1.4297861179767435     
         255           1   3.1455294595488361        5.2572595902722714        1.4297861179767435     
         256           1   4.2893583539302309        5.2572595902722714        1.4297861179767435     
         257           1   5.4331872483116266        5.2572595902722714        1.4297861179767435     
         258           1   6.5770161426930214        5.2572595902722714        1.4297861179767435     
         259           1   7.7208450370744162        5.2572595902722714        1.4297861179767435     
         260           1   8.8646739314558118        5.2572595902722714        1.4297861179767435     
         261           1   10.008502825837207        5.2572595902722714        1.4297861179767435     
         262           1   11.152331720218601        5.2572595902722714        1.4297861179767435     
         263           1   12.296160614599996        5.2572595902722714        1.4297861179767435     
         264           1   13.439989508981391        5.2572595902722714        1.4297861179767435     
         265           1  0.85787167078604631        6.8748779257406625        1.4297861179767435     
         266           1   2.0017005651674413        6.8748779257406625        1.4297861179767435     
         267           1   3.1455294595488361        6.8748779257406625        1.4297861179767435     
         268           1   4.2893583539302309        6.8748779257406625        1.4297861179767435     
         269           1   5.4331872483116266        6.8748779257406625        1.4297861179767435     
         270           1   6.5770161426930214        6.8748779257406625        1.4297861179767435     
         271           1   7.7208450370744162        6.8748779257406625        1.4297861179767435     
         272           1   8.8646739314558118        6.8748779257406625        1.4297861179767435     
         273           1   10.008502825837207        6.8748779257406625        1.4297861179767435     
         274           1   11.152331720218601        6.8748779257406625        1.4297861179767435     
         275           1   12.296160614599996        6.8748779257406625        1.4297861179767435     
         276           1   13.439989508981391        6.8748779257406625        1.4297861179767435     
         277           1  0.85787167078604631        8.4924962612090535        1.4297861179767435     
         278           1   2.0017005651674413        8.4924962612090535        1.4297861179767435     
         279           1   3.1455294595488361        8.4924962612090535        1.4297861179767435     
         280           1   4.2893583539302309        8.4924962612090535        1.4297861179767435     
         281           1   5.4331872483116266        8.4924962612090535        1.4297861179767435     
         282           1   6.5770161426930214        8.4924962612090535        1.4297861179767435     
         283           1   7.7208450370744162        8.4924962612090535        1.4297861179767435     
         284           1   8.8646739314558118        8.4924962612090535        1.4297861179767435     
         285           1   10.008502825837207        8.4924962612090535        1.4297861179767435     
         286           1   11.152331720218601        8.4924962612090535        1.4297861179767435     
         287           1   12.296160614599996        8.4924962612090535        1.4297861179767435     
         288           1   13.439989508981391        8.4924962612090535        1.4297861179767435     