LAMMPS data file via write_data, version 2 Aug 2023, timestep = 0, units = lj

540 atoms
2 atom types

0 5.511243314014206 xlo xhi
0 5.7274520596481295 ylo yhi
0 16.1996807611922 zlo zhi

Masses

1 1
2 1

Atoms # atomic

1 2 0.826686 0.477288 0.449991 0 0 0
2 2 0.275562 1.431863 0.449991 0 0 0
3 2 1.928935 0.477288 0.449991 0 0 0
4 2 1.377811 1.431863 0.449991 0 0 0
5 2 3.0311843140142063 0.477288 0.449991 -1 0 0
6 2 2.480059 1.431863 0.449991 0 0 0
7 2 4.133432314014206 0.477288 0.449991 -1 0 0
8 2 3.582308314014206 1.431863 0.449991 -1 0 0
9 2 5.235681314014206 0.477288 0.449991 -1 0 0
10 2 4.6845573140142065 1.431863 0.449991 -1 0 0
11 2 0.826686 2.386438 0.449991 0 0 0
13 2 1.928935 2.386438 0.449991 0 0 0
15 2 3.0311843140142063 2.386438 0.449991 -1 0 0
17 2 4.133432314014206 2.386438 0.449991 -1 0 0
19 2 5.235681314014206 2.386438 0.449991 -1 0 0
31 1 0.275562 0.795479 1.349973 0 0 0
32 1 0.826686 1.750055 1.349973 0 0 0
33 1 1.377811 0.795479 1.349973 0 0 0
34 1 1.928935 1.750055 1.349973 0 0 0
35 1 2.480059 0.795479 1.349973 0 0 0
36 1 3.0311843140142063 1.750055 1.349973 -1 0 0
37 1 3.582308314014206 0.795479 1.349973 -1 0 0
38 1 4.133432314014206 1.750055 1.349973 -1 0 0
39 1 4.6845573140142065 0.795479 1.349973 -1 0 0
40 1 5.235681314014206 1.750055 1.349973 -1 0 0
41 1 0.275562 2.70463 1.349973 0 0 0
43 1 1.377811 2.70463 1.349973 0 0 0
45 1 2.480059 2.70463 1.349973 0 0 0
47 1 3.582308314014206 2.70463 1.349973 -1 0 0
49 1 4.6845573140142065 2.70463 1.349973 -1 0 0
61 1 0.275562 0.159096 2.249956 0 0 0
62 1 0.826686 1.113671 2.249956 0 0 0
63 1 1.377811 0.159096 2.249956 0 0 0
64 1 1.928935 1.113671 2.249956 0 0 0
65 1 2.480059 0.159096 2.249956 0 0 0
66 1 3.0311843140142063 1.113671 2.249956 -1 0 0
67 1 3.582308314014206 0.159096 2.249956 -1 0 0
68 1 4.133432314014206 1.113671 2.249956 -1 0 0
69 1 4.6845573140142065 0.159096 2.249956 -1 0 0
70 1 5.235681314014206 1.113671 2.249956 -1 0 0
71 1 0.275562 2.068247 2.249956 0 0 0
73 1 1.377811 2.068247 2.249956 0 0 0
75 1 2.480059 2.068247 2.249956 0 0 0
77 1 3.582308314014206 2.068247 2.249956 -1 0 0
79 1 4.6845573140142065 2.068247 2.249956 -1 0 0
91 1 0.826686 0.477288 3.149938 0 0 0
92 1 0.275562 1.431863 3.149938 0 0 0
93 1 1.928935 0.477288 3.149938 0 0 0
94 1 1.377811 1.431863 3.149938 0 0 0
95 1 3.0311843140142063 0.477288 3.149938 -1 0 0
96 1 2.480059 1.431863 3.149938 0 0 0
97 1 4.133432314014206 0.477288 3.149938 -1 0 0
98 1 3.582308314014206 1.431863 3.149938 -1 0 0
99 1 5.235681314014206 0.477288 3.149938 -1 0 0
100 1 4.6845573140142065 1.431863 3.149938 -1 0 0
101 1 0.826686 2.386438 3.149938 0 0 0
103 1 1.928935 2.386438 3.149938 0 0 0
105 1 3.0311843140142063 2.386438 3.149938 -1 0 0
107 1 4.133432314014206 2.386438 3.149938 -1 0 0
109 1 5.235681314014206 2.386438 3.149938 -1 0 0
121 1 0.275562 0.795479 4.04992 0 0 0
122 1 0.826686 1.750055 4.04992 0 0 0
123 1 1.377811 0.795479 4.04992 0 0 0
124 1 1.928935 1.750055 4.04992 0 0 0
125 1 2.480059 0.795479 4.04992 0 0 0
126 1 3.0311843140142063 1.750055 4.04992 -1 0 0
127 1 3.582308314014206 0.795479 4.04992 -1 0 0
128 1 4.133432314014206 1.750055 4.04992 -1 0 0
129 1 4.6845573140142065 0.795479 4.04992 -1 0 0
130 1 5.235681314014206 1.750055 4.04992 -1 0 0
131 1 0.275562 2.70463 4.04992 0 0 0
133 1 1.377811 2.70463 4.04992 0 0 0
135 1 2.480059 2.70463 4.04992 0 0 0
137 1 3.582308314014206 2.70463 4.04992 -1 0 0
139 1 4.6845573140142065 2.70463 4.04992 -1 0 0
151 1 0.275562 0.159096 4.949902 0 0 0
152 1 0.826686 1.113671 4.949902 0 0 0
153 1 1.377811 0.159096 4.949902 0 0 0
154 1 1.928935 1.113671 4.949902 0 0 0
155 1 2.480059 0.159096 4.949902 0 0 0
156 1 3.0311843140142063 1.113671 4.949902 -1 0 0
157 1 3.582308314014206 0.159096 4.949902 -1 0 0
158 1 4.133432314014206 1.113671 4.949902 -1 0 0
159 1 4.6845573140142065 0.159096 4.949902 -1 0 0
160 1 5.235681314014206 1.113671 4.949902 -1 0 0
161 1 0.275562 2.068247 4.949902 0 0 0
163 1 1.377811 2.068247 4.949902 0 0 0
165 1 2.480059 2.068247 4.949902 0 0 0
167 1 3.582308314014206 2.068247 4.949902 -1 0 0
169 1 4.6845573140142065 2.068247 4.949902 -1 0 0
181 1 0.826686 0.477288 5.849885 0 0 0
182 1 0.275562 1.431863 5.849885 0 0 0
183 1 1.928935 0.477288 5.849885 0 0 0
184 1 1.377811 1.431863 5.849885 0 0 0
185 1 3.0311843140142063 0.477288 5.849885 -1 0 0
186 1 2.480059 1.431863 5.849885 0 0 0
187 1 4.133432314014206 0.477288 5.849885 -1 0 0
188 1 3.582308314014206 1.431863 5.849885 -1 0 0
189 1 5.235681314014206 0.477288 5.849885 -1 0 0
190 1 4.6845573140142065 1.431863 5.849885 -1 0 0
191 1 0.826686 2.386438 5.849885 0 0 0
193 1 1.928935 2.386438 5.849885 0 0 0
195 1 3.0311843140142063 2.386438 5.849885 -1 0 0
197 1 4.133432314014206 2.386438 5.849885 -1 0 0
199 1 5.235681314014206 2.386438 5.849885 -1 0 0
211 1 0.275562 0.795479 6.749867 0 0 0
212 1 0.826686 1.750055 6.749867 0 0 0
213 1 1.377811 0.795479 6.749867 0 0 0
214 1 1.928935 1.750055 6.749867 0 0 0
215 1 2.480059 0.795479 6.749867 0 0 0
216 1 3.0311843140142063 1.750055 6.749867 -1 0 0
217 1 3.582308314014206 0.795479 6.749867 -1 0 0
218 1 4.133432314014206 1.750055 6.749867 -1 0 0
219 1 4.6845573140142065 0.795479 6.749867 -1 0 0
220 1 5.235681314014206 1.750055 6.749867 -1 0 0
221 1 0.275562 2.70463 6.749867 0 0 0
223 1 1.377811 2.70463 6.749867 0 0 0
225 1 2.480059 2.70463 6.749867 0 0 0
227 1 3.582308314014206 2.70463 6.749867 -1 0 0
229 1 4.6845573140142065 2.70463 6.749867 -1 0 0
241 1 0.275562 0.159096 7.649849 0 0 0
242 1 0.826686 1.113671 7.649849 0 0 0
243 1 1.377811 0.159096 7.649849 0 0 0
244 1 1.928935 1.113671 7.649849 0 0 0
245 1 2.480059 0.159096 7.649849 0 0 0
246 1 3.0311843140142063 1.113671 7.649849 -1 0 0
247 1 3.582308314014206 0.159096 7.649849 -1 0 0
248 1 4.133432314014206 1.113671 7.649849 -1 0 0
249 1 4.6845573140142065 0.159096 7.649849 -1 0 0
250 1 5.235681314014206 1.113671 7.649849 -1 0 0
251 1 0.275562 2.068247 7.649849 0 0 0
253 1 1.377811 2.068247 7.649849 0 0 0
255 1 2.480059 2.068247 7.649849 0 0 0
257 1 3.582308314014206 2.068247 7.649849 -1 0 0
259 1 4.6845573140142065 2.068247 7.649849 -1 0 0
271 1 0.826686 0.477288 8.549832 0 0 0
272 1 0.275562 1.431863 8.549832 0 0 0
273 1 1.928935 0.477288 8.549832 0 0 0
274 1 1.377811 1.431863 8.549832 0 0 0
275 1 3.0311843140142063 0.477288 8.549832 -1 0 0
276 1 2.480059 1.431863 8.549832 0 0 0
277 1 4.133432314014206 0.477288 8.549832 -1 0 0
278 1 3.582308314014206 1.431863 8.549832 -1 0 0
279 1 5.235681314014206 0.477288 8.549832 -1 0 0
280 1 4.6845573140142065 1.431863 8.549832 -1 0 0
281 1 0.826686 2.386438 8.549832 0 0 0
283 1 1.928935 2.386438 8.549832 0 0 0
285 1 3.0311843140142063 2.386438 8.549832 -1 0 0
287 1 4.133432314014206 2.386438 8.549832 -1 0 0
289 1 5.235681314014206 2.386438 8.549832 -1 0 0
301 1 0.275562 0.795479 9.449814 0 0 0
302 1 0.826686 1.750055 9.449814 0 0 0
303 1 1.377811 0.795479 9.449814 0 0 0
304 1 1.928935 1.750055 9.449814 0 0 0
305 1 2.480059 0.795479 9.449814 0 0 0
306 1 3.0311843140142063 1.750055 9.449814 -1 0 0
307 1 3.582308314014206 0.795479 9.449814 -1 0 0
308 1 4.133432314014206 1.750055 9.449814 -1 0 0
309 1 4.6845573140142065 0.795479 9.449814 -1 0 0
310 1 5.235681314014206 1.750055 9.449814 -1 0 0
311 1 0.275562 2.70463 9.449814 0 0 0
313 1 1.377811 2.70463 9.449814 0 0 0
315 1 2.480059 2.70463 9.449814 0 0 0
317 1 3.582308314014206 2.70463 9.449814 -1 0 0
319 1 4.6845573140142065 2.70463 9.449814 -1 0 0
331 1 0.275562 0.159096 10.349796 0 0 0
332 1 0.826686 1.113671 10.349796 0 0 0
333 1 1.377811 0.159096 10.349796 0 0 0
334 1 1.928935 1.113671 10.349796 0 0 0
335 1 2.480059 0.159096 10.349796 0 0 0
336 1 3.0311843140142063 1.113671 10.349796 -1 0 0
337 1 3.582308314014206 0.159096 10.349796 -1 0 0
338 1 4.133432314014206 1.113671 10.349796 -1 0 0
339 1 4.6845573140142065 0.159096 10.349796 -1 0 0
340 1 5.235681314014206 1.113671 10.349796 -1 0 0
341 1 0.275562 2.068247 10.349796 0 0 0
343 1 1.377811 2.068247 10.349796 0 0 0
345 1 2.480059 2.068247 10.349796 0 0 0
347 1 3.582308314014206 2.068247 10.349796 -1 0 0
349 1 4.6845573140142065 2.068247 10.349796 -1 0 0
361 1 0.826686 0.477288 11.249778 0 0 0
362 1 0.275562 1.431863 11.249778 0 0 0
363 1 1.928935 0.477288 11.249778 0 0 0
364 1 1.377811 1.431863 11.249778 0 0 0
365 1 3.0311843140142063 0.477288 11.249778 -1 0 0
366 1 2.480059 1.431863 11.249778 0 0 0
367 1 4.133432314014206 0.477288 11.249778 -1 0 0
368 1 3.582308314014206 1.431863 11.249778 -1 0 0
369 1 5.235681314014206 0.477288 11.249778 -1 0 0
370 1 4.6845573140142065 1.431863 11.249778 -1 0 0
371 1 0.826686 2.386438 11.249778 0 0 0
373 1 1.928935 2.386438 11.249778 0 0 0
375 1 3.0311843140142063 2.386438 11.249778 -1 0 0
377 1 4.133432314014206 2.386438 11.249778 -1 0 0
379 1 5.235681314014206 2.386438 11.249778 -1 0 0
391 1 0.275562 0.795479 12.149761 0 0 0
392 1 0.826686 1.750055 12.149761 0 0 0
393 1 1.377811 0.795479 12.149761 0 0 0
394 1 1.928935 1.750055 12.149761 0 0 0
395 1 2.480059 0.795479 12.149761 0 0 0
396 1 3.0311843140142063 1.750055 12.149761 -1 0 0
397 1 3.582308314014206 0.795479 12.149761 -1 0 0
398 1 4.133432314014206 1.750055 12.149761 -1 0 0
399 1 4.6845573140142065 0.795479 12.149761 -1 0 0
400 1 5.235681314014206 1.750055 12.149761 -1 0 0
401 1 0.275562 2.70463 12.149761 0 0 0
403 1 1.377811 2.70463 12.149761 0 0 0
405 1 2.480059 2.70463 12.149761 0 0 0
407 1 3.582308314014206 2.70463 12.149761 -1 0 0
409 1 4.6845573140142065 2.70463 12.149761 -1 0 0
421 1 0.275562 0.159096 13.049743 0 0 0
422 1 0.826686 1.113671 13.049743 0 0 0
423 1 1.377811 0.159096 13.049743 0 0 0
424 1 1.928935 1.113671 13.049743 0 0 0
425 1 2.480059 0.159096 13.049743 0 0 0
426 1 3.0311843140142063 1.113671 13.049743 -1 0 0
427 1 3.582308314014206 0.159096 13.049743 -1 0 0
428 1 4.133432314014206 1.113671 13.049743 -1 0 0
429 1 4.6845573140142065 0.159096 13.049743 -1 0 0
430 1 5.235681314014206 1.113671 13.049743 -1 0 0
431 1 0.275562 2.068247 13.049743 0 0 0
433 1 1.377811 2.068247 13.049743 0 0 0
435 1 2.480059 2.068247 13.049743 0 0 0
437 1 3.582308314014206 2.068247 13.049743 -1 0 0
439 1 4.6845573140142065 2.068247 13.049743 -1 0 0
451 1 0.826686 0.477288 13.949725 0 0 0
452 1 0.275562 1.431863 13.949725 0 0 0
453 1 1.928935 0.477288 13.949725 0 0 0
454 1 1.377811 1.431863 13.949725 0 0 0
455 1 3.0311843140142063 0.477288 13.949725 -1 0 0
456 1 2.480059 1.431863 13.949725 0 0 0
457 1 4.133432314014206 0.477288 13.949725 -1 0 0
458 1 3.582308314014206 1.431863 13.949725 -1 0 0
459 1 5.235681314014206 0.477288 13.949725 -1 0 0
460 1 4.6845573140142065 1.431863 13.949725 -1 0 0
461 1 0.826686 2.386438 13.949725 0 0 0
463 1 1.928935 2.386438 13.949725 0 0 0
465 1 3.0311843140142063 2.386438 13.949725 -1 0 0
467 1 4.133432314014206 2.386438 13.949725 -1 0 0
469 1 5.235681314014206 2.386438 13.949725 -1 0 0
481 1 0.275562 0.795479 14.849707 0 0 0
482 1 0.826686 1.750055 14.849707 0 0 0
483 1 1.377811 0.795479 14.849707 0 0 0
484 1 1.928935 1.750055 14.849707 0 0 0
485 1 2.480059 0.795479 14.849707 0 0 0
486 1 3.0311843140142063 1.750055 14.849707 -1 0 0
487 1 3.582308314014206 0.795479 14.849707 -1 0 0
488 1 4.133432314014206 1.750055 14.849707 -1 0 0
489 1 4.6845573140142065 0.795479 14.849707 -1 0 0
490 1 5.235681314014206 1.750055 14.849707 -1 0 0
491 1 0.275562 2.70463 14.849707 0 0 0
493 1 1.377811 2.70463 14.849707 0 0 0
495 1 2.480059 2.70463 14.849707 0 0 0
497 1 3.582308314014206 2.70463 14.849707 -1 0 0
499 1 4.6845573140142065 2.70463 14.849707 -1 0 0
511 2 0.275562 0.159096 15.74969 0 0 0
512 2 0.826686 1.113671 15.74969 0 0 0
513 2 1.377811 0.159096 15.74969 0 0 0
514 2 1.928935 1.113671 15.74969 0 0 0
515 2 2.480059 0.159096 15.74969 0 0 0
516 2 3.0311843140142063 1.113671 15.74969 -1 0 0
517 2 3.582308314014206 0.159096 15.74969 -1 0 0
518 2 4.133432314014206 1.113671 15.74969 -1 0 0
519 2 4.6845573140142065 0.159096 15.74969 -1 0 0
520 2 5.235681314014206 1.113671 15.74969 -1 0 0
521 2 0.275562 2.068247 15.74969 0 0 0
523 2 1.377811 2.068247 15.74969 0 0 0
525 2 2.480059 2.068247 15.74969 0 0 0
527 2 3.582308314014206 2.068247 15.74969 -1 0 0
529 2 4.6845573140142065 2.068247 15.74969 -1 0 0
12 2 0.275562 3.3410140596481295 0.449991 0 -1 0
14 2 1.377811 3.3410140596481295 0.449991 0 -1 0
16 2 2.480059 3.3410140596481295 0.449991 0 -1 0
18 2 3.582308314014206 3.3410140596481295 0.449991 -1 -1 0
20 2 4.6845573140142065 3.3410140596481295 0.449991 -1 -1 0
21 2 0.826686 4.29558905964813 0.449991 0 -1 0
22 2 0.275562 5.25016405964813 0.449991 0 -1 0
23 2 1.928935 4.29558905964813 0.449991 0 -1 0
24 2 1.377811 5.25016405964813 0.449991 0 -1 0
25 2 3.0311843140142063 4.29558905964813 0.449991 -1 -1 0
26 2 2.480059 5.25016405964813 0.449991 0 -1 0
27 2 4.133432314014206 4.29558905964813 0.449991 -1 -1 0
28 2 3.582308314014206 5.25016405964813 0.449991 -1 -1 0
29 2 5.235681314014206 4.29558905964813 0.449991 -1 -1 0
30 2 4.6845573140142065 5.25016405964813 0.449991 -1 -1 0
42 1 0.826686 3.6592050596481296 1.349973 0 -1 0
44 1 1.928935 3.6592050596481296 1.349973 0 -1 0
46 1 3.0311843140142063 3.6592050596481296 1.349973 -1 -1 0
48 1 4.133432314014206 3.6592050596481296 1.349973 -1 -1 0
50 1 5.235681314014206 3.6592050596481296 1.349973 -1 -1 0
51 1 0.275562 4.6137810596481295 1.349973 0 -1 0
52 1 0.826686 5.56835605964813 1.349973 0 -1 0
53 1 1.377811 4.6137810596481295 1.349973 0 -1 0
54 1 1.928935 5.56835605964813 1.349973 0 -1 0
55 1 2.480059 4.6137810596481295 1.349973 0 -1 0
56 1 3.0311843140142063 5.56835605964813 1.349973 -1 -1 0
57 1 3.582308314014206 4.6137810596481295 1.349973 -1 -1 0
58 1 4.133432314014206 5.56835605964813 1.349973 -1 -1 0
59 1 4.6845573140142065 4.6137810596481295 1.349973 -1 -1 0
60 1 5.235681314014206 5.56835605964813 1.349973 -1 -1 0
72 1 0.826686 3.0228220596481297 2.249956 0 -1 0
74 1 1.928935 3.0228220596481297 2.249956 0 -1 0
76 1 3.0311843140142063 3.0228220596481297 2.249956 -1 -1 0
78 1 4.133432314014206 3.0228220596481297 2.249956 -1 -1 0
80 1 5.235681314014206 3.0228220596481297 2.249956 -1 -1 0
81 1 0.275562 3.97739705964813 2.249956 0 -1 0
82 1 0.826686 4.931973059648129 2.249956 0 -1 0
83 1 1.377811 3.97739705964813 2.249956 0 -1 0
84 1 1.928935 4.931973059648129 2.249956 0 -1 0
85 1 2.480059 3.97739705964813 2.249956 0 -1 0
86 1 3.0311843140142063 4.931973059648129 2.249956 -1 -1 0
87 1 3.582308314014206 3.97739705964813 2.249956 -1 -1 0
88 1 4.133432314014206 4.931973059648129 2.249956 -1 -1 0
89 1 4.6845573140142065 3.97739705964813 2.249956 -1 -1 0
90 1 5.235681314014206 4.931973059648129 2.249956 -1 -1 0
102 1 0.275562 3.3410140596481295 3.149938 0 -1 0
104 1 1.377811 3.3410140596481295 3.149938 0 -1 0
106 1 2.480059 3.3410140596481295 3.149938 0 -1 0
108 1 3.582308314014206 3.3410140596481295 3.149938 -1 -1 0
110 1 4.6845573140142065 3.3410140596481295 3.149938 -1 -1 0
111 1 0.826686 4.29558905964813 3.149938 0 -1 0
112 1 0.275562 5.25016405964813 3.149938 0 -1 0
113 1 1.928935 4.29558905964813 3.149938 0 -1 0
114 1 1.377811 5.25016405964813 3.149938 0 -1 0
115 1 3.0311843140142063 4.29558905964813 3.149938 -1 -1 0
116 1 2.480059 5.25016405964813 3.149938 0 -1 0
117 1 4.133432314014206 4.29558905964813 3.149938 -1 -1 0
118 1 3.582308314014206 5.25016405964813 3.149938 -1 -1 0
119 1 5.235681314014206 4.29558905964813 3.149938 -1 -1 0
120 1 4.6845573140142065 5.25016405964813 3.149938 -1 -1 0
132 1 0.826686 3.6592050596481296 4.04992 0 -1 0
134 1 1.928935 3.6592050596481296 4.04992 0 -1 0
136 1 3.0311843140142063 3.6592050596481296 4.04992 -1 -1 0
138 1 4.133432314014206 3.6592050596481296 4.04992 -1 -1 0
140 1 5.235681314014206 3.6592050596481296 4.04992 -1 -1 0
141 1 0.275562 4.6137810596481295 4.04992 0 -1 0
142 1 0.826686 5.56835605964813 4.04992 0 -1 0
143 1 1.377811 4.6137810596481295 4.04992 0 -1 0
144 1 1.928935 5.56835605964813 4.04992 0 -1 0
145 1 2.480059 4.6137810596481295 4.04992 0 -1 0
146 1 3.0311843140142063 5.56835605964813 4.04992 -1 -1 0
147 1 3.582308314014206 4.6137810596481295 4.04992 -1 -1 0
148 1 4.133432314014206 5.56835605964813 4.04992 -1 -1 0
149 1 4.6845573140142065 4.6137810596481295 4.04992 -1 -1 0
150 1 5.235681314014206 5.56835605964813 4.04992 -1 -1 0
162 1 0.826686 3.0228220596481297 4.949902 0 -1 0
164 1 1.928935 3.0228220596481297 4.949902 0 -1 0
166 1 3.0311843140142063 3.0228220596481297 4.949902 -1 -1 0
168 1 4.133432314014206 3.0228220596481297 4.949902 -1 -1 0
170 1 5.235681314014206 3.0228220596481297 4.949902 -1 -1 0
171 1 0.275562 3.97739705964813 4.949902 0 -1 0
172 1 0.826686 4.931973059648129 4.949902 0 -1 0
173 1 1.377811 3.97739705964813 4.949902 0 -1 0
174 1 1.928935 4.931973059648129 4.949902 0 -1 0
175 1 2.480059 3.97739705964813 4.949902 0 -1 0
176 1 3.0311843140142063 4.931973059648129 4.949902 -1 -1 0
177 1 3.582308314014206 3.97739705964813 4.949902 -1 -1 0
178 1 4.133432314014206 4.931973059648129 4.949902 -1 -1 0
179 1 4.6845573140142065 3.97739705964813 4.949902 -1 -1 0
180 1 5.235681314014206 4.931973059648129 4.949902 -1 -1 0
192 1 0.275562 3.3410140596481295 5.849885 0 -1 0
194 1 1.377811 3.3410140596481295 5.849885 0 -1 0
196 1 2.480059 3.3410140596481295 5.849885 0 -1 0
198 1 3.582308314014206 3.3410140596481295 5.849885 -1 -1 0
200 1 4.6845573140142065 3.3410140596481295 5.849885 -1 -1 0
201 1 0.826686 4.29558905964813 5.849885 0 -1 0
202 1 0.275562 5.25016405964813 5.849885 0 -1 0
203 1 1.928935 4.29558905964813 5.849885 0 -1 0
204 1 1.377811 5.25016405964813 5.849885 0 -1 0
205 1 3.0311843140142063 4.29558905964813 5.849885 -1 -1 0
206 1 2.480059 5.25016405964813 5.849885 0 -1 0
207 1 4.133432314014206 4.29558905964813 5.849885 -1 -1 0
208 1 3.582308314014206 5.25016405964813 5.849885 -1 -1 0
209 1 5.235681314014206 4.29558905964813 5.849885 -1 -1 0
210 1 4.6845573140142065 5.25016405964813 5.849885 -1 -1 0
222 1 0.826686 3.6592050596481296 6.749867 0 -1 0
224 1 1.928935 3.6592050596481296 6.749867 0 -1 0
226 1 3.0311843140142063 3.6592050596481296 6.749867 -1 -1 0
228 1 4.133432314014206 3.6592050596481296 6.749867 -1 -1 0
230 1 5.235681314014206 3.6592050596481296 6.749867 -1 -1 0
231 1 0.275562 4.6137810596481295 6.749867 0 -1 0
232 1 0.826686 5.56835605964813 6.749867 0 -1 0
233 1 1.377811 4.6137810596481295 6.749867 0 -1 0
234 1 1.928935 5.56835605964813 6.749867 0 -1 0
235 1 2.480059 4.6137810596481295 6.749867 0 -1 0
236 1 3.0311843140142063 5.56835605964813 6.749867 -1 -1 0
237 1 3.582308314014206 4.6137810596481295 6.749867 -1 -1 0
238 1 4.133432314014206 5.56835605964813 6.749867 -1 -1 0
239 1 4.6845573140142065 4.6137810596481295 6.749867 -1 -1 0
240 1 5.235681314014206 5.56835605964813 6.749867 -1 -1 0
252 1 0.826686 3.0228220596481297 7.649849 0 -1 0
254 1 1.928935 3.0228220596481297 7.649849 0 -1 0
256 1 3.0311843140142063 3.0228220596481297 7.649849 -1 -1 0
258 1 4.133432314014206 3.0228220596481297 7.649849 -1 -1 0
260 1 5.235681314014206 3.0228220596481297 7.649849 -1 -1 0
261 1 0.275562 3.97739705964813 7.649849 0 -1 0
262 1 0.826686 4.931973059648129 7.649849 0 -1 0
263 1 1.377811 3.97739705964813 7.649849 0 -1 0
264 1 1.928935 4.931973059648129 7.649849 0 -1 0
265 1 2.480059 3.97739705964813 7.649849 0 -1 0
266 1 3.0311843140142063 4.931973059648129 7.649849 -1 -1 0
267 1 3.582308314014206 3.97739705964813 7.649849 -1 -1 0
268 1 4.133432314014206 4.931973059648129 7.649849 -1 -1 0
269 1 4.6845573140142065 3.97739705964813 7.649849 -1 -1 0
270 1 5.235681314014206 4.931973059648129 7.649849 -1 -1 0
282 1 0.275562 3.3410140596481295 8.549832 0 -1 0
284 1 1.377811 3.3410140596481295 8.549832 0 -1 0
286 1 2.480059 3.3410140596481295 8.549832 0 -1 0
288 1 3.582308314014206 3.3410140596481295 8.549832 -1 -1 0
290 1 4.6845573140142065 3.3410140596481295 8.549832 -1 -1 0
291 1 0.826686 4.29558905964813 8.549832 0 -1 0
292 1 0.275562 5.25016405964813 8.549832 0 -1 0
293 1 1.928935 4.29558905964813 8.549832 0 -1 0
294 1 1.377811 5.25016405964813 8.549832 0 -1 0
295 1 3.0311843140142063 4.29558905964813 8.549832 -1 -1 0
296 1 2.480059 5.25016405964813 8.549832 0 -1 0
297 1 4.133432314014206 4.29558905964813 8.549832 -1 -1 0
298 1 3.582308314014206 5.25016405964813 8.549832 -1 -1 0
299 1 5.235681314014206 4.29558905964813 8.549832 -1 -1 0
300 1 4.6845573140142065 5.25016405964813 8.549832 -1 -1 0
312 1 0.826686 3.6592050596481296 9.449814 0 -1 0
314 1 1.928935 3.6592050596481296 9.449814 0 -1 0
316 1 3.0311843140142063 3.6592050596481296 9.449814 -1 -1 0
318 1 4.133432314014206 3.6592050596481296 9.449814 -1 -1 0
320 1 5.235681314014206 3.6592050596481296 9.449814 -1 -1 0
321 1 0.275562 4.6137810596481295 9.449814 0 -1 0
322 1 0.826686 5.56835605964813 9.449814 0 -1 0
323 1 1.377811 4.6137810596481295 9.449814 0 -1 0
324 1 1.928935 5.56835605964813 9.449814 0 -1 0
325 1 2.480059 4.6137810596481295 9.449814 0 -1 0
326 1 3.0311843140142063 5.56835605964813 9.449814 -1 -1 0
327 1 3.582308314014206 4.6137810596481295 9.449814 -1 -1 0
328 1 4.133432314014206 5.56835605964813 9.449814 -1 -1 0
329 1 4.6845573140142065 4.6137810596481295 9.449814 -1 -1 0
330 1 5.235681314014206 5.56835605964813 9.449814 -1 -1 0
342 1 0.826686 3.0228220596481297 10.349796 0 -1 0
344 1 1.928935 3.0228220596481297 10.349796 0 -1 0
346 1 3.0311843140142063 3.0228220596481297 10.349796 -1 -1 0
348 1 4.133432314014206 3.0228220596481297 10.349796 -1 -1 0
350 1 5.235681314014206 3.0228220596481297 10.349796 -1 -1 0
351 1 0.275562 3.97739705964813 10.349796 0 -1 0
352 1 0.826686 4.931973059648129 10.349796 0 -1 0
353 1 1.377811 3.97739705964813 10.349796 0 -1 0
354 1 1.928935 4.931973059648129 10.349796 0 -1 0
355 1 2.480059 3.97739705964813 10.349796 0 -1 0
356 1 3.0311843140142063 4.931973059648129 10.349796 -1 -1 0
357 1 3.582308314014206 3.97739705964813 10.349796 -1 -1 0
358 1 4.133432314014206 4.931973059648129 10.349796 -1 -1 0
359 1 4.6845573140142065 3.97739705964813 10.349796 -1 -1 0
360 1 5.235681314014206 4.931973059648129 10.349796 -1 -1 0
372 1 0.275562 3.3410140596481295 11.249778 0 -1 0
374 1 1.377811 3.3410140596481295 11.249778 0 -1 0
376 1 2.480059 3.3410140596481295 11.249778 0 -1 0
378 1 3.582308314014206 3.3410140596481295 11.249778 -1 -1 0
380 1 4.6845573140142065 3.3410140596481295 11.249778 -1 -1 0
381 1 0.826686 4.29558905964813 11.249778 0 -1 0
382 1 0.275562 5.25016405964813 11.249778 0 -1 0
383 1 1.928935 4.29558905964813 11.249778 0 -1 0
384 1 1.377811 5.25016405964813 11.249778 0 -1 0
385 1 3.0311843140142063 4.29558905964813 11.249778 -1 -1 0
386 1 2.480059 5.25016405964813 11.249778 0 -1 0
387 1 4.133432314014206 4.29558905964813 11.249778 -1 -1 0
388 1 3.582308314014206 5.25016405964813 11.249778 -1 -1 0
389 1 5.235681314014206 4.29558905964813 11.249778 -1 -1 0
390 1 4.6845573140142065 5.25016405964813 11.249778 -1 -1 0
402 1 0.826686 3.6592050596481296 12.149761 0 -1 0
404 1 1.928935 3.6592050596481296 12.149761 0 -1 0
406 1 3.0311843140142063 3.6592050596481296 12.149761 -1 -1 0
408 1 4.133432314014206 3.6592050596481296 12.149761 -1 -1 0
410 1 5.235681314014206 3.6592050596481296 12.149761 -1 -1 0
411 1 0.275562 4.6137810596481295 12.149761 0 -1 0
412 1 0.826686 5.56835605964813 12.149761 0 -1 0
413 1 1.377811 4.6137810596481295 12.149761 0 -1 0
414 1 1.928935 5.56835605964813 12.149761 0 -1 0
415 1 2.480059 4.6137810596481295 12.149761 0 -1 0
416 1 3.0311843140142063 5.56835605964813 12.149761 -1 -1 0
417 1 3.582308314014206 4.6137810596481295 12.149761 -1 -1 0
418 1 4.133432314014206 5.56835605964813 12.149761 -1 -1 0
419 1 4.6845573140142065 4.6137810596481295 12.149761 -1 -1 0
420 1 5.235681314014206 5.56835605964813 12.149761 -1 -1 0
432 1 0.826686 3.0228220596481297 13.049743 0 -1 0
434 1 1.928935 3.0228220596481297 13.049743 0 -1 0
436 1 3.0311843140142063 3.0228220596481297 13.049743 -1 -1 0
438 1 4.133432314014206 3.0228220596481297 13.049743 -1 -1 0
440 1 5.235681314014206 3.0228220596481297 13.049743 -1 -1 0
441 1 0.275562 3.97739705964813 13.049743 0 -1 0
442 1 0.826686 4.931973059648129 13.049743 0 -1 0
443 1 1.377811 3.97739705964813 13.049743 0 -1 0
444 1 1.928935 4.931973059648129 13.049743 0 -1 0
445 1 2.480059 3.97739705964813 13.049743 0 -1 0
446 1 3.0311843140142063 4.931973059648129 13.049743 -1 -1 0
447 1 3.582308314014206 3.97739705964813 13.049743 -1 -1 0
448 1 4.133432314014206 4.931973059648129 13.049743 -1 -1 0
449 1 4.6845573140142065 3.97739705964813 13.049743 -1 -1 0
450 1 5.235681314014206 4.931973059648129 13.049743 -1 -1 0
462 1 0.275562 3.3410140596481295 13.949725 0 -1 0
464 1 1.377811 3.3410140596481295 13.949725 0 -1 0
466 1 2.480059 3.3410140596481295 13.949725 0 -1 0
468 1 3.582308314014206 3.3410140596481295 13.949725 -1 -1 0
470 1 4.6845573140142065 3.3410140596481295 13.949725 -1 -1 0
471 1 0.826686 4.29558905964813 13.949725 0 -1 0
472 1 0.275562 5.25016405964813 13.949725 0 -1 0
473 1 1.928935 4.29558905964813 13.949725 0 -1 0
474 1 1.377811 5.25016405964813 13.949725 0 -1 0
475 1 3.0311843140142063 4.29558905964813 13.949725 -1 -1 0
476 1 2.480059 5.25016405964813 13.949725 0 -1 0
477 1 4.133432314014206 4.29558905964813 13.949725 -1 -1 0
478 1 3.582308314014206 5.25016405964813 13.949725 -1 -1 0
479 1 5.235681314014206 4.29558905964813 13.949725 -1 -1 0
480 1 4.6845573140142065 5.25016405964813 13.949725 -1 -1 0
492 1 0.826686 3.6592050596481296 14.849707 0 -1 0
494 1 1.928935 3.6592050596481296 14.849707 0 -1 0
496 1 3.0311843140142063 3.6592050596481296 14.849707 -1 -1 0
498 1 4.133432314014206 3.6592050596481296 14.849707 -1 -1 0
500 1 5.235681314014206 3.6592050596481296 14.849707 -1 -1 0
501 1 0.275562 4.6137810596481295 14.849707 0 -1 0
502 1 0.826686 5.56835605964813 14.849707 0 -1 0
503 1 1.377811 4.6137810596481295 14.849707 0 -1 0
504 1 1.928935 5.56835605964813 14.849707 0 -1 0
505 1 2.480059 4.6137810596481295 14.849707 0 -1 0
506 1 3.0311843140142063 5.56835605964813 14.849707 -1 -1 0
507 1 3.582308314014206 4.6137810596481295 14.849707 -1 -1 0
508 1 4.133432314014206 5.56835605964813 14.849707 -1 -1 0
509 1 4.6845573140142065 4.6137810596481295 14.849707 -1 -1 0
510 1 5.235681314014206 5.56835605964813 14.849707 -1 -1 0
522 2 0.826686 3.0228220596481297 15.74969 0 -1 0
524 2 1.928935 3.0228220596481297 15.74969 0 -1 0
526 2 3.0311843140142063 3.0228220596481297 15.74969 -1 -1 0
528 2 4.133432314014206 3.0228220596481297 15.74969 -1 -1 0
530 2 5.235681314014206 3.0228220596481297 15.74969 -1 -1 0
531 2 0.275562 3.97739705964813 15.74969 0 -1 0
532 2 0.826686 4.931973059648129 15.74969 0 -1 0
533 2 1.377811 3.97739705964813 15.74969 0 -1 0
534 2 1.928935 4.931973059648129 15.74969 0 -1 0
535 2 2.480059 3.97739705964813 15.74969 0 -1 0
536 2 3.0311843140142063 4.931973059648129 15.74969 -1 -1 0
537 2 3.582308314014206 3.97739705964813 15.74969 -1 -1 0
538 2 4.133432314014206 4.931973059648129 15.74969 -1 -1 0
539 2 4.6845573140142065 3.97739705964813 15.74969 -1 -1 0
540 2 5.235681314014206 4.931973059648129 15.74969 -1 -1 0

Velocities

1 0.2395807870894989 -0.3746587538133349 -0.5220816753095187
2 0.31418101736948056 0.10136190777806325 -0.14116940875610037
3 0.0661194560259933 0.0335053053781616 0.4959054828736954
4 -0.4900446934423243 0.04147583092596617 -0.2548290560156154
5 0.23354023994391288 -0.10275988509127335 -0.17515659806280717
6 0.15867552164103277 0.20650005885216213 -0.28997799012212705
7 -0.18856566782046952 -0.31547744310246656 0.49128476560624057
8 -0.07645521392961785 -0.14100138946025872 -0.27651698861922763
9 0.39596974796136736 -0.014066275377041994 -0.06883109724712685
10 0.04512850488871603 -0.48644194907671084 0.5275900732215644
11 0.09904735553512346 -0.1392894897235946 0.5084471447966258
13 0.41893611185665186 -0.5131032972811841 0.26166609399878343
15 0.023337906537507107 -0.05831973172235141 -0.18967350291665128
17 0.5346503228090539 0.0723677755846288 0.2991871339042824
19 -0.5306000560710068 0.4581412547026238 0.12055620964114587
31 -0.5239204268156147 -0.4011993133255235 0.5453663224262728
32 0.26319308981543393 0.15904922161398408 -0.41779805849674795
33 -0.15177517327947834 0.0024844092030143396 0.4014640985481003
34 0.05198940123977177 0.28694589844230883 -0.3591891038551512
35 -0.5182064678989262 0.4747223530424036 0.5255145665366018
36 -0.35373131505020433 -0.08452550366847325 -0.4230263067674226
37 0.009994551367249981 0.05506013368151634 0.5162590618711775
38 0.19567111983021926 -0.46975553863929786 -0.0018784844917675283
39 0.14712447028470768 -0.1521777972566431 0.32820429299419107
40 0.41048692189114205 0.36228649903107785 0.031038248940317963
41 -0.47673779445502534 -0.00782350254662561 0.3553802986139487
43 0.011522258572801841 -0.024248025669688266 0.37430668110439
45 0.47504857043013965 0.32370483557095336 -0.2933207525631258
47 0.47299218758808814 0.055113137385441394 0.304423513760066
49 -0.3340721976377298 -0.1325448123778688 0.5505259782150459
61 -0.5107180730883119 0.32047155183103 0.5259514684319022
62 0.02687436387860835 -0.08638138414636691 -0.33753621900842473
63 -0.444874918545231 0.3947431688428244 0.04326866274439391
64 0.2581543342931234 -0.2861567079953929 -0.14217404511871756
65 0.3936075719187786 -0.3013218345225346 0.30330558687013365
66 0.34245559022529865 0.16557894981212326 0.18834643647333404
67 -0.47457769821683704 0.22844444073796938 -0.27882356287026494
68 -0.374277781874152 -0.021052844896559807 -0.023791033921167815
69 -0.018869041076070986 -0.24153429849181987 -0.09397927540862198
70 -0.367800591571847 0.40131268604245934 -0.4439215578919471
71 0.2977623948740739 -0.3457691054985782 0.2446831730954874
73 -0.4913491946500804 0.2164780019876826 0.49316774295196375
75 -0.47918244030543483 -0.006865779437755869 -0.38666175741698067
77 -0.21863729334162232 0.33045244437990634 0.12118072458075532
79 0.3170626488777917 -0.18930586494114562 0.21573761783558446
91 -0.09473960803816747 -0.10635787187973275 0.10859943115965569
92 0.4838057045308629 -0.49745594731771675 0.14322344144455607
93 -0.46263642899800317 0.07897045449991333 0.5057123723078698
94 0.5589243124851986 -0.5547758120021613 0.00427934399487981
95 -0.33417144907964574 0.29257186237000854 -0.18625290678446016