LAMMPS data file via write_data, version 2 Aug 2023, timestep = 53550, units = lj

540 atoms
2 atom types

0 5.511243314014206 xlo xhi
0 5.7274520596481295 ylo yhi
0 16.1996807611922 zlo zhi

Masses

1 1
2 1

Atoms # atomic

1 2 0.3355165072583396 0.1893819333856507 0.42087937527161706 0 0 0
2 2 5.273576224716231 1.131138881220864 0.45829053774466755 -1 0 0
3 2 1.435358208519278 0.1972075775051844 0.45767449690462503 0 0 0
4 2 0.8531122082334326 1.1493482842146832 0.45364842371932995 0 0 0
5 2 2.553887864539323 0.16243442775122843 0.4320562898791004 -1 0 0
6 2 1.9458589063024692 1.1781333908570109 0.44571762912633295 0 0 0
7 2 3.605414690089399 0.20860978636756802 0.4414528552763153 -1 0 0
8 2 3.040713255649248 1.120276307762519 0.44073035708323727 -1 0 0
9 2 4.71356574809324 0.1707710277423163 0.44376281438718673 -1 0 0
10 2 4.214764251792392 1.154676755317525 0.45984201999966473 -1 0 0
11 2 0.2977100920235427 2.069874435194406 0.4841679800352443 0 0 0
13 2 1.438123345994336 2.1038793176157977 0.46150191448391115 0 0 0
15 2 2.511978691222145 2.0949521926326304 0.4774381443914027 -1 0 0
17 2 3.6247243112239556 2.072581315544938 0.4528000502316646 -1 0 0
19 2 4.705653929899224 2.0878913496299143 0.4597167890184903 -1 0 0
31 1 0.33390544380103737 0.8541021752878638 1.3323268913644852 0 0 0
32 1 0.9205009059347854 1.8168509332982992 1.389625348783161 0 0 0
33 1 1.4329687109919134 0.8548075922928493 1.3258577356543546 0 0 0
34 1 2.0235920590087138 1.797518113750702 1.3420802242856944 0 0 0
35 1 2.556306196399054 0.8497463051203452 1.316092472001148 0 0 0
36 1 3.1078540658792915 1.768499326710249 1.3611010520116145 -1 0 0
37 1 3.6553823471754465 0.8417288622690763 1.3008699951739335 -1 0 0
38 1 4.215314159513212 1.7797941118956992 1.405625062935602 -1 0 0
39 1 4.7513943396902505 0.8322480364229295 1.3627307283873562 -1 0 0
40 1 5.304060835503652 1.7778819771377778 1.3407788295291478 -1 0 0
43 1 1.4678549842928619 2.7356937809500486 1.3757062572033338 0 0 0
139 1 4.836061396337246 2.771257229351035 4.05222866141432 -1 0 0
161 1 0.3803506224242216 2.0916909028837467 4.934986206122412 0 0 0
47 1 3.65564624177055 2.7510825163177546 1.3518563213802481 -1 0 0
49 1 4.7762087128936574 2.7661891951589763 1.3209730088305776 -1 0 0
61 1 0.38585256141919666 0.21305096306387122 2.276056496862524 0 0 0
62 1 0.930600887164118 1.122198844330362 2.249600967691067 0 0 0
63 1 1.4748276428704306 0.19575433209563986 2.2254851746051525 0 0 0
64 1 2.0429475790814675 1.12852105416758 2.2336373552860302 0 0 0
65 1 2.6137588850833415 0.23336794099335256 2.2650636171256475 0 0 0
66 1 3.1380927024763103 1.145961557549525 2.26932437336797 -1 0 0
67 1 3.6909911097739165 0.2374116830306344 2.28560349428077 -1 0 0
68 1 4.198159037403627 1.1515493177146898 2.230926777298692 -1 0 0
69 1 4.826702543460588 0.2077246566614731 2.249147628215843 -1 0 0
70 1 5.308017832228652 1.1723558549214659 2.215605809037305 -1 0 0
71 1 0.32952203484635706 2.1185709556240915 2.2219393354189636 0 0 0
73 1 1.5132835729856517 2.112462939150206 2.229336436793775 0 0 0
75 1 2.658973403143464 2.1374963670267 2.258919758725863 0 0 0
77 1 3.7295775514844283 2.128402312294076 2.2808418758047995 -1 0 0
79 1 4.798894661852087 2.124305615786228 2.257270509320468 -1 0 0
91 1 0.9310496991444032 0.5711608992878805 3.1589696989783764 0 0 0
92 1 0.40395210951512983 1.5055855824233688 3.153562671643274 0 0 0
93 1 2.031300207541599 0.5109048563887614 3.148571405543588 0 0 0
94 1 1.539283206094445 1.5273622923399128 3.144804433528553 0 0 0
95 1 3.156811710973619 0.5148669706839175 3.152491491500212 -1 0 0
96 1 2.612313718830147 1.5072530867209286 3.1573524183215382 0 0 0
97 1 4.269470215452596 0.4925530031295619 3.1601461217547704 -1 0 0
98 1 3.706589193405304 1.4994435800858732 3.143224773009207 -1 0 0
99 1 5.3736002912308996 0.5475419360435914 3.147417423044347 -1 0 0
100 1 4.81762659300787 1.4820355845410595 3.1113968319632175 -1 0 0
101 1 0.9737926248477423 2.4739126349293854 3.1593770359288986 0 0 0
103 1 2.0894611419559155 2.452996244987619 3.1190167892944447 0 0 0
105 1 3.1891116375676436 2.443983959381526 3.1837186225873775 -1 0 0
107 1 4.302522969762986 2.4639451452517367 3.162357013872768 -1 0 0
109 1 5.412127602607293 2.441029265333864 3.1375651340556425 -1 0 0
121 1 0.4069493410284755 0.8404911957089883 4.0531662081415725 0 0 0
122 1 0.9316950596522394 1.8093351133985829 4.027275183639111 0 0 0
123 1 1.5225065102458566 0.8449512698596519 4.0391366859300515 0 0 0
124 1 2.0643420964318255 1.7845072870809093 4.057563208702201 0 0 0
125 1 2.6110800168157944 0.8093126786500461 4.056112351631244 0 0 0
126 1 3.1372319709979544 1.8432473085691028 4.061745589851546 -1 0 0
127 1 3.6778151152747607 0.8629723437600159 4.033533348950871 -1 0 0
128 1 4.261746383745332 1.7866133469080088 4.029811868140019 -1 0 0
129 1 4.804136641665339 0.8796781934846238 4.00255791637185 -1 0 0
130 1 5.316486624453332 1.8050886864012115 4.013673443821901 -1 0 0
45 1 2.5894665406328623 2.7220186992087125 1.3550578612141395 0 0 0
169 1 4.7474495846446985 2.131607045251345 4.904265316608819 -1 0 0
163 1 1.4504542147383506 2.110821714067839 4.8898601187009625 0 0 0
167 1 3.6601530591414297 2.114478374189174 4.952711941816165 -1 0 0
165 1 2.583036740585312 2.1243243348133563 4.952543723436626 0 0 0
151 1 0.37836408526768095 0.22073589101253696 4.937976314149792 0 0 0
152 1 0.9497888618416543 1.1581532437922286 4.904291708602623 0 0 0
153 1 1.53667117658257 0.20641955747874147 4.9553806360600605 0 0 0
154 1 2.0409563991549295 1.176212035278468 4.9361081328041445 0 0 0
155 1 2.608982998371263 0.25087349768196393 4.957863400005097 0 0 0
156 1 3.153873388050573 1.1612277517516152 4.956262059379505 -1 0 0
157 1 3.69037608400235 0.19979922511020948 4.940779840286261 -1 0 0
158 1 4.3008426176172945 1.1499835472893418 4.936917033845795 -1 0 0
159 1 4.806286554759956 0.17328786069777224 4.936526337763472 -1 0 0
160 1 5.330939033914498 1.1869617947065667 4.9370404790319435 -1 0 0
41 1 0.35431031630512777 2.7828352187948617 1.362646052035994 0 0 0
135 1 2.5972264854042417 2.780356105490553 4.0475184988180315 0 0 0
133 1 1.4819674296894367 2.7774027736648805 4.0178023955305955 0 0 0
137 1 3.753286984448108 2.8020187484157932 4.064457297957591 -1 0 0
131 1 0.392128309796414 2.78580066746486 4.007130355058029 0 0 0
181 1 0.9460231358379695 0.49536842481632637 5.836216843716475 0 0 0
182 1 0.3827301155456635 1.4422814774515087 5.839644253206645 0 0 0
183 1 2.0347085044529045 0.534538427148734 5.833524862412267 0 0 0
184 1 1.4781515417347386 1.5065103760635326 5.82984039547537 0 0 0
185 1 3.1691800187608674 0.5286939171613325 5.834693426685386 -1 0 0
186 1 2.6027564398550735 1.4765672490678587 5.841888733300691 0 0 0
187 1 4.237898311575448 0.48355251428591434 5.823277551916107 -1 0 0
188 1 3.7138320320737366 1.4652852240289997 5.820587898854558 -1 0 0
189 1 5.333869237166621 0.46049262841311234 5.810567250085306 -1 0 0
190 1 4.814819211244746 1.4565762284653654 5.847206688186246 -1 0 0
191 1 0.9198983682487221 2.421472471183342 5.848957020053405 0 0 0
193 1 2.00954657991238 2.4111054273044226 5.803323757506354 0 0 0
195 1 3.1201532049088447 2.414180567188908 5.855212122720913 -1 0 0
197 1 4.199232248472441 2.3876922989406046 5.854218609528627 -1 0 0
199 1 5.339176060909233 2.4024189465397097 5.820596114080103 -1 0 0
211 1 0.36472931689182014 0.8111234551028627 6.720306385469226 0 0 0
212 1 0.8943064531865442 1.7579811003520125 6.730690691748875 0 0 0
213 1 1.4699889669342245 0.8447959598447096 6.742759830030358 0 0 0
214 1 1.9991487015494962 1.8062728085041124 6.736239952071814 0 0 0
215 1 2.551581091545862 0.8508185951899564 6.761861359229745 0 0 0
216 1 3.108167949144583 1.7923200653641527 6.756453007136741 -1 0 0
217 1 3.662815856175826 0.842128830686394 6.740750367065195 -1 0 0
218 1 4.222593979978666 1.756877861276914 6.7608918390726025 -1 0 0
219 1 4.7669465178185915 0.7945988858300935 6.705088981887246 -1 0 0
220 1 5.340296786869823 1.7890236834427016 6.722446825690209 -1 0 0
349 1 4.609586879484406 2.037848276282452 10.30529641470328 -1 0 0
347 1 3.5114778700922993 2.0436740457993827 10.320289084304546 -1 0 0
343 1 1.3087216029045168 1.9586303527947353 10.287049586201062 0 0 0
341 1 0.24674543515700928 2.0269168918772467 10.241711033544076 0 0 0
345 1 2.433563099044889 2.035045028653675 10.328958262866813 0 0 0
241 1 0.3251439489628308 0.20517824070284552 7.654480918115396 0 0 0
242 1 0.8641150530396052 1.1114335482549993 7.6511126843633726 0 0 0
243 1 1.4377651639507367 0.18201289030038365 7.619004031064219 0 0 0
244 1 1.9606169286636377 1.1542515691268074 7.645428316480175 0 0 0
245 1 2.498451860043926 0.21383809709427637 7.606365491231738 0 0 0
246 1 3.0649055243865213 1.154038468904624 7.644914381887843 -1 0 0
247 1 3.640672938093758 0.1656889617834674 7.58769468156955 -1 0 0
248 1 4.166729133579879 1.1277547037289548 7.6341889487103725 -1 0 0
249 1 4.719390971844239 0.15559538781922166 7.628087981074109 -1 0 0
250 1 5.261674331306199 1.112165512750352 7.602144461750803 -1 0 0
251 1 0.29634225791777524 2.0907448050466177 7.644924750170078 0 0 0
253 1 1.3902877938905212 2.0977291482500933 7.641337582924149 0 0 0
255 1 2.5134292610694895 2.0942255328933514 7.620917450937188 0 0 0
257 1 3.6200451263989284 2.0872503673265705 7.62015394061099 -1 0 0
259 1 4.767831790650928 2.086871729798609 7.628755281966639 -1 0 0
271 1 0.8539116707725936 0.48851581448477815 8.555552650067149 0 0 0
272 1 0.2640161101431818 1.4211485385845795 8.504958355028872 0 0 0
273 1 1.923718368931785 0.5029157512169834 8.52498403485207 0 0 0
274 1 1.3848439947007252 1.4628622639514148 8.522996948247078 0 0 0
275 1 3.026606757770779 0.5143554846005333 8.493558791786379 -1 0 0
276 1 2.4817782574809084 1.4980551938568958 8.514040439482573 0 0 0
277 1 4.1634387324633115 0.45024807127642175 8.50421563506064 -1 0 0
278 1 3.5805258300652882 1.4470875334697726 8.514569101474812 -1 0 0
279 1 5.227623455011619 0.4476184494460016 8.5346495892843 -1 0 0
280 1 4.678872976042275 1.4496789008099498 8.546601719782737 -1 0 0
281 1 0.8374571092498871 2.40354875924677 8.540967272779813 0 0 0
283 1 1.9264259347553765 2.3983198291450507 8.50789517666314 0 0 0
285 1 3.0354367690541046 2.382992893798619 8.512773798065885 -1 0 0
287 1 4.139532161073265 2.3927926468240877 8.511282039429295 -1 0 0
289 1 5.215795770844203 2.380280396280831 8.524809592987495 -1 0 0
301 1 0.23144159856342414 0.7528972032741172 9.469972369291535 0 0 0
302 1 0.7932808767527129 1.734745398773615 9.361331307116094 0 0 0
303 1 1.3509183157822697 0.8173884834778107 9.38975804706656 0 0 0
304 1 1.8966842981250784 1.753346716281928 9.413616876141583 0 0 0
305 1 2.4552994605485114 0.7894741987548167 9.420769825890806 0 0 0
306 1 3.011613714768562 1.7185759018993532 9.429942128928001 -1 0 0
307 1 3.5551123804559928 0.8166563760798237 9.392513901756379 -1 0 0
308 1 4.129367778940708 1.7316368509714497 9.436019026720157 -1 0 0
309 1 4.665685234065051 0.7464732042487321 9.419888171639236 -1 0 0
310 1 5.227747657102893 1.7121381770075086 9.401183075791632 -1 0 0
311 1 0.2586085034170934 2.7198906741643105 9.404515989805756 0 0 0
313 1 1.3761098029493415 2.6899763948667674 9.429445172002874 0 0 0
315 1 2.4471778154485526 2.6869456868131083 9.402063075464442 0 0 0
317 1 3.5679301692602357 2.6867773617968043 9.424520473691523 -1 0 0
319 1 4.680451755040483 2.664111406033724 9.413082586006302 -1 0 0
331 1 0.2111975911599946 0.062473698763373726 10.33502030225123 0 0 0
332 1 0.7898267880690925 1.0559292166105139 10.312525596290532 0 0 0
333 1 1.3466052079948443 0.13726501999878715 10.320001526506744 0 0 0
334 1 1.8895054778200575 1.0657257902084312 10.289018582762354 0 0 0
335 1 2.4381395370442758 0.09642147583586504 10.299827744489567 0 0 0
336 1 2.9771964982107417 1.0605334417642946 10.33275956146713 -1 0 0
337 1 3.5103181364769305 0.13067794218946469 10.327889765462002 -1 0 0
338 1 4.068673835200491 1.0747860157626172 10.309116462313865 -1 0 0
339 1 4.638928464560165 0.10569434433170653 10.314873874195243 -1 0 0
340 1 5.154706275881833 1.11495006384784 10.332397969544544 -1 0 0
225 1 2.533837341011631 2.734422767804709 6.734997001975545 0 0 0
229 1 4.757722932653209 2.717245318788331 6.747194815502286 -1 0 0
221 1 0.3401976687451351 2.736908877600029 6.775625990233626 0 0 0
223 1 1.4500183028904938 2.7469028850243964 6.7377455571163125 0 0 0
227 1 3.629919375815444 2.7475182782311673 6.744076602466449 -1 0 0
361 1 0.6358632911313549 0.41989320300312444 11.236244955577215 0 0 0
362 1 0.1489974749280135 1.3949837882809581 11.230355764437286 0 0 0
363 1 1.7920088662094666 0.41188880733036487 11.205879986393473 0 0 0
364 1 1.2899972323148645 1.3536380799439232 11.207283433292716 0 0 0
365 1 2.891238385819533 0.4333587728192718 11.231945682600243 -1 0 0
366 1 2.3572459767705594 1.3479089615189817 11.193316823066075 0 0 0
367 1 4.001091022160434 0.4192860964399414 11.19785204483693 -1 0 0
368 1 3.4805955328591467 1.3733572014676858 11.215503532795749 -1 0 0
369 1 5.100298017881281 0.4081163646713486 11.193801927424515 -1 0 0
370 1 4.540870223823876 1.3660343983491385 11.220078809390337 -1 0 0
371 1 0.7332468198641217 2.29195830964415 11.172087758495717 0 0 0
373 1 1.816494035062892 2.311502352139053 11.221429328764867 0 0 0
375 1 2.9299609354643197 2.293920807801047 11.219370878370357 -1 0 0
377 1 4.0115907103104735 2.345293875921409 11.267600793547402 -1 0 0
379 1 5.066264091515053 2.3103085345358907 11.228192438659487 -1 0 0
391 1 0.012423280915662189 0.7003098336670085 12.116476817825687 0 0 0
392 1 0.6426327272082238 1.6305318138284999 12.126173827529712 0 0 0
393 1 1.1636034362213636 0.6702298194562806 12.109018820324811 0 0 0
394 1 1.7219022984319803 1.6501795475598846 12.113448644746159 0 0 0
395 1 2.255457793064165 0.6987239408229527 12.113332656865703 0 0 0
396 1 2.8037332790766607 1.6481192553239747 12.11610838681279 -1 0 0
397 1 3.3855982039878656 0.6956452540751333 12.13211284715193 -1 0 0
398 1 3.9191932670732763 1.6494597962657378 12.154366043561403 -1 0 0
399 1 4.49169978082509 0.7185755671199325 12.136042170858518 -1 0 0
400 1 5.061166251894065 1.690412934756139 12.116861500324635 -1 0 0
401 1 0.13847665752755361 2.54634281761017 12.1176541079148 0 0 0
403 1 1.2003131011442412 2.5986177434513267 12.129374118232992 0 0 0
405 1 2.3218146111428832 2.6019193565238403 12.128882090300957 0 0 0
407 1 3.4062704424578008 2.57908710800439 12.158756524742026 -1 0 0
409 1 4.480673369635394 2.6159142857938056 12.137251054870536 -1 0 0
425 1 2.2433062041038245 0.03220402124344849 13.029135654787353 0 0 0
422 1 0.5285558401365499 0.9793860041988095 13.001667817176054 0 0 0
522 2 0.3960567363078821 2.8131576835464136 15.74788817685285 0 -1 0
424 1 1.663327981432639 0.9526716669327694 13.019311710005418 0 0 0
525 2 2.062010101820122 1.849003949503889 15.77378852631138 0 0 0
426 1 2.743585836960364 1.0084442470679587 13.01600140379492 -1 0 0
523 2 0.9667384690305981 1.854732226862324 15.744375589492893 0 0 0
428 1 3.8721070078067754 0.997417434478864 13.05962407468634 -1 0 0
521 2 5.377168276222168 1.806840972961367 15.771936293525593 -1 0 0
430 1 4.959705599765361 1.0142996849161254 13.071671628934613 -1 0 0
431 1 0.027012889014413587 1.9164900595520384 13.042336685866143 0 0 0
433 1 1.1032340215275882 1.898436629953844 13.056413072379017 0 0 0
435 1 2.2202140739007645 1.9676741065773646 13.02338595432531 0 0 0
437 1 3.3005426138568255 1.9129500692268004 13.065391373556281 -1 0 0
439 1 4.414395878037415 1.9396094306266234 13.038015052970533 -1 0 0
451 1 0.5100815790164457 0.3046932319128286 13.940310128399062 0 0 0
452 1 5.483623765814593 1.285021249986571 13.967528791949727 -1 0 0
453 1 1.6227783523094903 0.3104056034411946 13.940570801565492 0 0 0
454 1 1.0570489983005162 1.262629937209171 13.926723330195083 0 0 0
455 1 2.688210280262953 0.3178576114155468 13.939987145661696 -1 0 0
456 1 2.1399054936899216 1.2871822968706086 13.92883016058285 0 0 0
457 1 3.838401832295961 0.3162956815158956 13.940398891088808 -1 0 0
458 1 3.221438459011059 1.2731265705985908 13.950408617059319 -1 0 0
459 1 4.938028869704381 0.321043248347293 13.939161313378161 -1 0 0
460 1 4.377085945738387 1.2579488076662646 13.939917944219241 -1 0 0
461 1 0.4522684284502937 2.2379808737961513 13.935019878387504 0 0 0
463 1 1.5833620323069126 2.2041834646793492 13.943754775176568 0 0 0
465 1 2.7034829777213405 2.2293476314791647 13.982594483405176 -1 0 0
467 1 3.7884892911903574 2.2590200762444845 13.951513042842162 -1 0 0
469 1 4.9019732929834525 2.2019443816041586 13.896192699232854 -1 0 0
481 1 5.456168342971039 0.5962323515005135 14.832062003071828 -1 0 0
482 1 0.43788269450917494 1.5307198230731849 14.856204269156374 0 0 0
483 1 0.9889571496122134 0.5829722453547439 14.855681111140777 0 0 0
484 1 1.5626548971068044 1.5267443502129474 14.87529427626726 0 0 0
485 1 2.0635914117639707 0.6006966625212369 14.812084664021308 0 0 0
486 1 2.6498674424833566 1.5515391526000668 14.85034454782095 -1 0 0
487 1 3.189179043229986 0.5967992240807454 14.882190413088432 -1 0 0
488 1 3.7685908343497223 1.530647637650571 14.84646380583869 -1 0 0
489 1 4.310208547258755 0.6074154284159307 14.877803985741282 -1 0 0
490 1 4.868356699800102 1.549919132245173 14.831923435452907 -1 0 0
491 1 5.415452944204599 2.4858823171130404 14.848149751582547 -1 0 0
493 1 0.994834281580129 2.458680297430246 14.833786423941826 0 0 0
495 1 2.089110339511065 2.524505305314894 14.863767510319557 0 0 0
497 1 3.1741654959632153 2.5290129444378517 14.871927000690272 -1 0 0
499 1 4.3023816286588294 2.4763938600179265 14.846290080444085 -1 0 0
529 2 4.2667574359776985 1.8098221808288861 15.753621517314631 -1 0 0
512 2 0.3932038174322143 0.844751506540698 15.743942471328635 0 0 0
530 2 4.857323140670563 2.7985844771974238 15.745204662359264 -1 -1 0
514 2 1.515275697271833 0.8701448326781791 15.71548775781077 0 0 0
524 2 1.478412190033947 2.8158154868384613 15.775799140347242 0 -1 0
516 2 2.60317531540554 0.8959050687568274 15.734059818921743 -1 0 0
520 2 4.816003921223214 0.8587809783353787 15.763825763815653 -1 0 0
518 2 3.685804977269892 0.869242758325017 15.753630114922382 -1 0 0
527 2 3.1170558624306857 1.815748912148164 15.75059905443055 -1 0 0
528 2 3.707750437248114 2.770050585312798 15.762695133381975 -1 -1 0
526 2 2.593204669696696 2.7773185156544864 15.759908321759834 -1 -1 0
427 1 3.3546796346484866 0.022871610049960554 13.03065087108578 -1 0 0
429 1 4.44117982070626 0.030103366216838037 13.06091340937409 -1 0 0
423 1 1.1137136833334962 0.009051586260429784 13.02089691771594 0 0 0
440 1 4.978949193313134 2.861763766554312 13.018986282843194 -1 -1 0
12 2 5.295432908162838 3.0555267767632084 0.44897702761112723 -1 -1 0
14 2 0.8742259047378002 3.0287742157099715 0.45279684417776156 0 -1 0
16 2 1.9997204576703482 3.055422653712179 0.43572162541707904 0 -1 0
18 2 3.086666560398527 3.049583669911701 0.4682501439985022 -1 -1 0
20 2 4.164918911204416 3.058555153463551 0.4675715818731655 -1 -1 0
21 2 0.31345616957898953 4.002018131523123 0.4539973127637925 0 -1 0
22 2 5.248692412280277 4.977575696958637 0.4566287807535264 -1 -1 0
23 2 1.4106210500043137 3.9877452517805145 0.47632326200919584 0 -1 0
24 2 0.8793006710507013 4.976635719530166 0.42860942428343346 0 -1 0
25 2 2.5030226694308824 4.027838938213675 0.48370854791934087 -1 -1 0
26 2 1.9938319959960662 4.974029963710995 0.45336507771976 0 -1 0
27 2 3.6087741996367 4.008315924163409 0.46148060578970335 -1 -1 0
28 2 3.1168828493062883 4.954090599249283 0.4705773030318166 -1 -1 0
29 2 4.721767808161975 4.007988448302789 0.4675660459439988 -1 -1 0
30 2 4.147520980287148 4.957473576035774 0.4726114634270327 -1 -1 0
42 1 0.9373587902453031 3.708261084409658 1.3514500603406632 0 -1 0
44 1 2.026285184791642 3.690032816658371 1.3684683070371375 0 -1 0
46 1 3.1308525870228476 3.689600594379067 1.3334416649227623 -1 -1 0
48 1 4.2174613890737636 3.689626325614674 1.330140752206847 -1 -1 0
50 1 5.324147065493425 3.723497888358585 1.3622618889272138 -1 -1 0
51 1 0.37577837692897065 4.635430396542243 1.3316024001996962 0 -1 0
58 1 4.166676599772711 5.637074179168523 1.3552742163441838 -1 -1 0
53 1 1.4434139528705299 4.668745058037052 1.3638861120346164 0 -1 0
142 1 0.9960368683688353 5.578658364918401 4.068965318874304 0 -1 0
55 1 2.5828924046241815 4.730905845861311 1.3751690210275536 0 -1 0
56 1 3.100144671158432 5.67346776273804 1.3911097238384598 -1 -1 0
57 1 3.6765131804627096 4.680817120213603 1.3591147063076177 -1 -1 0
175 1 2.5975517456548314 4.060099219855594 4.983176661828543 0 -1 0
59 1 4.769407558738449 4.693644476245706 1.3220311257866346 -1 -1 0
60 1 5.28752335706348 5.632204250221095 1.3618164402705804 -1 -1 0
72 1 0.911254444283707 3.0381408610858536 2.2538552151156486 0 -1 0
74 1 2.045215829080901 3.0540491200840907 2.2228254279905073 0 -1 0
76 1 3.1764450345333457 3.083227851509523 2.2564324422453224 -1 -1 0
78 1 4.270146705739067 3.107275917639347 2.2176785024776393 -1 -1 0
80 1 5.315265419506591 3.0966360176327976 2.2617797067189738 -1 -1 0
81 1 0.4359057638813076 4.030848149046335 2.247041222259273 0 -1 0
82 1 0.9303635967864698 4.984273844155279 2.2338168621708725 0 -1 0
83 1 1.528828985881904 4.047008252146 2.242467940913377 0 -1 0
84 1 2.054858805058154 4.998974614704891 2.266496462634405 0 -1 0
85 1 2.635060270499176 4.046558239595808 2.2322114632131775 0 -1 0
86 1 3.1584249946939855 4.99764777676146 2.252499256193137 -1 -1 0
87 1 3.697071331731572 4.055561078396899 2.227834946689815 -1 -1 0
88 1 4.244651184713047 5.051514657700525 2.2406712657054677 -1 -1 0
89 1 4.7818718521573915 4.070333072765084 2.252520113366634 -1 -1 0
90 1 5.3763228080568615 4.968471115451615 2.2391776614476275 -1 -1 0
102 1 0.3827329728420745 3.4388311386561785 3.1508975959431416 0 -1 0
104 1 1.508657446843489 3.42493900795306 3.106288894063361 0 -1 0
106 1 2.6142826976162787 3.404112505180201 3.1186729730007037 0 -1 0
108 1 3.6974612579089943 3.389079480303408 3.1263497945247085 -1 -1 0
110 1 4.806837389237787 3.408459686881482 3.1399441241858157 -1 -1 0
111 1 0.9821650767080913 4.382152309727405 3.132160995428959 0 -1 0
112 1 0.42541538995992595 5.32971935952771 3.1699838977793284 0 -1 0
113 1 2.078224532444971 4.360688599083479 3.1775692563861506 0 -1 0
114 1 1.493414037191535 5.346312475095846 3.1381216337632387 0 -1 0
115 1 3.1987773774733577 4.328903417377475 3.1275125147211833 -1 -1 0
116 1 2.5822334745395845 5.290122045177005 3.1302891027304827 0 -1 0
117 1 4.258502599420431 4.368259238624507 3.1063242126673845 -1 -1 0
118 1 3.71680840760187 5.318814741335467 3.1676460921277965 -1 -1 0
119 1 5.390629045727764 4.365341124398355 3.1690808409293685 -1 -1 0
120 1 4.833764901891835 5.325806630734598 3.1739273491529207 -1 -1 0
132 1 1.0108153347585853 3.7361102545175684 4.034837284233027 0 -1 0
134 1 2.0705581592719824 3.72154239109415 4.060027842356889 0 -1 0
136 1 3.1418237836853145 3.729043468004974 4.02297329482191 -1 -1 0
138 1 4.30173079118808 3.7221328793653656 4.027686610208198 -1 -1 0
140 1 5.355800005555015 3.709371269859892 4.069146763823967 -1 -1 0
141 1 0.411561164968351 4.644843891513321 4.054984302579847 0 -1 0
176 1 3.117616605035433 5.008221592023706 4.924870668282878 -1 -1 0
143 1 1.543412875712689 4.673740064134191 4.035328744009613 0 -1 0
180 1 5.337555468183263 5.001652241123891 4.935277438726962 -1 -1 0
145 1 2.6071223186997217 4.683020746332336 4.035345739748215 0 -1 0
179 1 4.776945411127468 4.01786736028173 4.954724826987874 -1 -1 0
147 1 3.683524381762785 4.664585993020769 4.0548588525552285 -1 -1 0
177 1 3.7239958921697385 4.045753159580052 4.906382810326334 -1 -1 0
149 1 4.794508044040111 4.68815538170614 4.048249536405239 -1 -1 0
178 1 4.229268722161197 4.9786413452180245 4.93798044705089 -1 -1 0
162 1 0.9460687484207244 3.060591939922967 4.91592907483351 0 -1 0
164 1 2.0242649027053377 3.062976937930912 4.938339756652667 0 -1 0
166 1 3.117087547641635 3.0866291770470684 4.934847153465655 -1 -1 0
168 1 4.247553498451592 3.084867571220935 4.969049675351039 -1 -1 0
170 1 5.3395108959689965 3.0694981761883016 4.946059367978251 -1 -1 0
171 1 0.408654113534291 4.035971429190062 4.951258705892292 0 -1 0
172 1 0.9362176529679883 4.981725713022275 4.942584450769398 0 -1 0
173 1 1.5382526257948037 4.041727455419409 4.924786324070464 0 -1 0
174 1 2.053626921710032 4.999989917105121 4.9377463906058745 0 -1 0
52 1 0.8651435370493336 5.679604943546633 1.3350398409657462 0 -1 0
146 1 3.1356655641607074 5.619831364846363 4.052955922661459 -1 -1 0
54 1 2.009457632945422 5.624322763349114 1.3190890918433502 0 -1 0
150 1 5.376017911690991 5.624375947215657 4.063272785727606 -1 -1 0
144 1 2.056030387060926 5.628019794610082 4.068672970098577 0 -1 0
148 1 4.266505652524514 5.621404502585888 4.041888572222775 -1 -1 0
192 1 0.3737835947415455 3.3523825540168852 5.823624326480686 0 -1 0
194 1 1.4778819668977086 3.3600576617787192 5.839041545136743 0 -1 0
196 1 2.553744406412159 3.3967266122045534 5.843467617490846 0 -1 0
198 1 3.677220111872478 3.370163385538017 5.854079783940987 -1 -1 0
200 1 4.768398041770215 3.3522605398821623 5.878154916000943 -1 -1 0
201 1 0.9131573844831918 4.297279783854732 5.841418404714451 0 -1 0
202 1 0.38969540350068144 5.236254763965762 5.86112808641911 0 -1 0
203 1 1.9956818722463237 4.3159231622825525 5.8646932367491145 0 -1 0
204 1 1.4909192286665276 5.279813607347774 5.813377563672561 0 -1 0
205 1 3.085575652566269 4.307337287207743 5.82943168248415 -1 -1 0
206 1 2.568299939871216 5.340078739640999 5.821770954945462 0 -1 0
207 1 4.277417089219025 4.3035186381628945 5.858081780802784 -1 -1 0
208 1 3.6516754571477037 5.272821657264861 5.8394653211259815 -1 -1 0
209 1 5.356956926555618 4.3053828126043845 5.86452200538084 -1 -1 0
210 1 4.810938456177988 5.261141053164368 5.853362096483675 -1 -1 0
222 1 0.9134217656053736 3.728091312820334 6.768405281965997 0 -1 0
224 1 1.99353649427552 3.682194369001514 6.741962843483862 0 -1 0
226 1 3.1248455062562392 3.7209662286143455 6.709060494423434 -1 -1 0
228 1 4.230945104793063 3.693294171702059 6.753506769212808 -1 -1 0
230 1 5.316528152632951 3.6780731544967686 6.745752239861616 -1 -1 0
231 1 0.3388828935982458 4.6579030702488105 6.784626270639317 0 -1 0
238 1 4.208691115049069 5.608142057778306 6.703611946078238 -1 -1 0
233 1 1.4480855055287147 4.688125482117567 6.735181575322942 0 -1 0
360 1 5.1551031592778305 4.906765113672554 10.338410696516375 -1 -1 0
235 1 2.544589058548312 4.667374981658949 6.6928204644202935 0 -1 0
357 1 3.4894121857874634 3.9419865178130364 10.332277726268575 -1 -1 0
237 1 3.6874628298001584 4.648376591319693 6.711341803177277 -1 -1 0
359 1 4.6138809860257055 3.927446098229693 10.303919662024605 -1 -1 0
239 1 4.76091452190855 4.617988076312245 6.727863681485714 -1 -1 0
326 1 3.0508643618191074 5.569677635442363 9.405908323171964 -1 -1 0
252 1 0.8613941263329207 3.0190827260621784 7.618571379861936 0 -1 0
254 1 1.9584186299118258 3.0280301374614558 7.626021109731143 0 -1 0
256 1 3.0441498750527627 3.05423892592391 7.614841118342205 -1 -1 0
258 1 4.141919461273279 3.025268591379473 7.642675586152855 -1 -1 0
260 1 5.274451303231471 3.0660269063196446 7.629584027651974 -1 -1 0
261 1 0.3314600882241934 4.027530045775493 7.628089091267113 0 -1 0
262 1 0.9163793466736896 4.919224130064871 7.661387842671011 0 -1 0
263 1 1.4359149735152572 3.9691735613402437 7.650958696489345 0 -1 0
264 1 1.9903556185486593 4.966922062827169 7.622228485729027 0 -1 0
265 1 2.545751700554883 3.992963211582574 7.606453653398134 0 -1 0
266 1 3.0671988109139394 4.974921529517275 7.575169374155186 -1 -1 0
267 1 3.6281766424840023 4.023767666188714 7.616247205880689 -1 -1 0
268 1 4.182699508136861 4.970515622358546 7.615777351043279 -1 -1 0
269 1 4.735965807330715 3.9946083067422187 7.6262931296684195 -1 -1 0
270 1 5.269149180397024 4.965850387711615 7.643618783088674 -1 -1 0
282 1 0.29466003225822435 3.3891439548233997 8.517178069727859 0 -1 0
284 1 1.3825094783930858 3.348772821440616 8.560931752006514 0 -1 0
286 1 2.498626085478476 3.3105641046468732 8.507547077819693 0 -1 0
288 1 3.577360091989839 3.2855726787437276 8.508912308213196 -1 -1 0
290 1 4.656285879768543 3.3644075704066334 8.515360678898656 -1 -1 0
291 1 0.8678248096542486 4.313556547762038 8.55658362526489 0 -1 0
292 1 0.2950287777970222 5.29086964632952 8.530288686460345 0 -1 0
293 1 1.9618079032613116 4.291479272134566 8.53226209824428 0 -1 0
294 1 1.3925139923123193 5.22761170294923 8.523343392533963 0 -1 0
295 1 3.040790962927532 4.260775182849538 8.484033700089771 -1 -1 0
296 1 2.5230857146889796 5.29802984597625 8.525319039730379 0 -1 0
297 1 4.134123456878 4.298336638541234 8.517538871615049 -1 -1 0
298 1 3.613679583409567 5.241351165775567 8.489344791401804 -1 -1 0
299 1 5.2443170004845205 4.31186392782164 8.494202984800047 -1 -1 0
300 1 4.704771463108707 5.254408207016611 8.515580945020432 -1 -1 0
312 1 0.812622498908506 3.637740665767874 9.437258234756795 0 -1 0
314 1 1.9322894543818039 3.6444362212881107 9.45211561983664 0 -1 0
316 1 3.0520906964377406 3.657379944166088 9.4027630252476 -1 -1 0
318 1 4.120548740535505 3.6555532926203838 9.392882701570436 -1 -1 0
320 1 5.2072214967309405 3.6286248214070564 9.39985247971569 -1 -1 0
321 1 0.24451427232493345 4.581939600282061 9.402368041748092 0 -1 0
322 1 0.7909896639650555 5.546655423677107 9.465388741380625 0 -1 0
323 1 1.370696223468054 4.563959333423193 9.44392007635314 0 -1 0
324 1 1.909473455310134 5.54709383902339 9.403010446259843 0 -1 0
325 1 2.4496881385667297 4.61632969693055 9.439498779031888 0 -1 0
358 1 4.072629736622775 4.909930544527525 10.315474391020874 -1 -1 0
327 1 3.5438983296392967 4.599795491043212 9.42400587441461 -1 -1 0
328 1 4.12306131706879 5.532890737941841 9.433825817274174 -1 -1 0
329 1 4.684614963962103 4.605606054136307 9.406077483011483 -1 -1 0
330 1 5.185220427267978 5.547519745247925 9.421350108448012 -1 -1 0
342 1 0.8291829772314508 2.9915909448121663 10.306014981204388 0 -1 0