LAMMPS lj fcc 111 crystal [    5    3    6  ], rho=   1.05603

         540 atoms
           2 atom types

   0.00000000       5.5112433140142061      xlo xhi
   0.00000000       5.7274520596481295      ylo yhi
   0.00000000       16.199680761192202      zlo zhi

 Atoms

         1         2      0.826686      0.477288      0.449991
         2         2      0.275562      1.431863      0.449991
         3         2      1.928935      0.477288      0.449991
         4         2      1.377811      1.431863      0.449991
         5         2     -2.480059      0.477288      0.449991
         6         2      2.480059      1.431863      0.449991
         7         2     -1.377811      0.477288      0.449991
         8         2     -1.928935      1.431863      0.449991
         9         2     -0.275562      0.477288      0.449991
        10         2     -0.826686      1.431863      0.449991
        11         2      0.826686      2.386438      0.449991
        12         2      0.275562     -2.386438      0.449991
        13         2      1.928935      2.386438      0.449991
        14         2      1.377811     -2.386438      0.449991
        15         2     -2.480059      2.386438      0.449991
        16         2      2.480059     -2.386438      0.449991
        17         2     -1.377811      2.386438      0.449991
        18         2     -1.928935     -2.386438      0.449991
        19         2     -0.275562      2.386438      0.449991
        20         2     -0.826686     -2.386438      0.449991
        21         2      0.826686     -1.431863      0.449991
        22         2      0.275562     -0.477288      0.449991
        23         2      1.928935     -1.431863      0.449991
        24         2      1.377811     -0.477288      0.449991
        25         2     -2.480059     -1.431863      0.449991
        26         2      2.480059     -0.477288      0.449991
        27         2     -1.377811     -1.431863      0.449991
        28         2     -1.928935     -0.477288      0.449991
        29         2     -0.275562     -1.431863      0.449991
        30         2     -0.826686     -0.477288      0.449991
        31         1      0.275562      0.795479      1.349973
        32         1      0.826686      1.750055      1.349973
        33         1      1.377811      0.795479      1.349973
        34         1      1.928935      1.750055      1.349973
        35         1      2.480059      0.795479      1.349973
        36         1     -2.480059      1.750055      1.349973
        37         1     -1.928935      0.795479      1.349973
        38         1     -1.377811      1.750055      1.349973
        39         1     -0.826686      0.795479      1.349973
        40         1     -0.275562      1.750055      1.349973
        41         1      0.275562      2.704630      1.349973
        42         1      0.826686     -2.068247      1.349973
        43         1      1.377811      2.704630      1.349973
        44         1      1.928935     -2.068247      1.349973
        45         1      2.480059      2.704630      1.349973
        46         1     -2.480059     -2.068247      1.349973
        47         1     -1.928935      2.704630      1.349973
        48         1     -1.377811     -2.068247      1.349973
        49         1     -0.826686      2.704630      1.349973
        50         1     -0.275562     -2.068247      1.349973
        51         1      0.275562     -1.113671      1.349973
        52         1      0.826686     -0.159096      1.349973
        53         1      1.377811     -1.113671      1.349973
        54         1      1.928935     -0.159096      1.349973
        55         1      2.480059     -1.113671      1.349973
        56         1     -2.480059     -0.159096      1.349973
        57         1     -1.928935     -1.113671      1.349973
        58         1     -1.377811     -0.159096      1.349973
        59         1     -0.826686     -1.113671      1.349973
        60         1     -0.275562     -0.159096      1.349973
        61         1      0.275562      0.159096      2.249956
        62         1      0.826686      1.113671      2.249956
        63         1      1.377811      0.159096      2.249956
        64         1      1.928935      1.113671      2.249956
        65         1      2.480059      0.159096      2.249956
        66         1     -2.480059      1.113671      2.249956
        67         1     -1.928935      0.159096      2.249956
        68         1     -1.377811      1.113671      2.249956
        69         1     -0.826686      0.159096      2.249956
        70         1     -0.275562      1.113671      2.249956
        71         1      0.275562      2.068247      2.249956
        72         1      0.826686     -2.704630      2.249956
        73         1      1.377811      2.068247      2.249956
        74         1      1.928935     -2.704630      2.249956
        75         1      2.480059      2.068247      2.249956
        76         1     -2.480059     -2.704630      2.249956
        77         1     -1.928935      2.068247      2.249956
        78         1     -1.377811     -2.704630      2.249956
        79         1     -0.826686      2.068247      2.249956
        80         1     -0.275562     -2.704630      2.249956
        81         1      0.275562     -1.750055      2.249956
        82         1      0.826686     -0.795479      2.249956
        83         1      1.377811     -1.750055      2.249956
        84         1      1.928935     -0.795479      2.249956
        85         1      2.480059     -1.750055      2.249956
        86         1     -2.480059     -0.795479      2.249956
        87         1     -1.928935     -1.750055      2.249956
        88         1     -1.377811     -0.795479      2.249956
        89         1     -0.826686     -1.750055      2.249956
        90         1     -0.275562     -0.795479      2.249956
        91         1      0.826686      0.477288      3.149938
        92         1      0.275562      1.431863      3.149938
        93         1      1.928935      0.477288      3.149938
        94         1      1.377811      1.431863      3.149938
        95         1     -2.480059      0.477288      3.149938
        96         1      2.480059      1.431863      3.149938
        97         1     -1.377811      0.477288      3.149938
        98         1     -1.928935      1.431863      3.149938
        99         1     -0.275562      0.477288      3.149938
       100         1     -0.826686      1.431863      3.149938
       101         1      0.826686      2.386438      3.149938
       102         1      0.275562     -2.386438      3.149938
       103         1      1.928935      2.386438      3.149938
       104         1      1.377811     -2.386438      3.149938
       105         1     -2.480059      2.386438      3.149938
       106         1      2.480059     -2.386438      3.149938
       107         1     -1.377811      2.386438      3.149938
       108         1     -1.928935     -2.386438      3.149938
       109         1     -0.275562      2.386438      3.149938
       110         1     -0.826686     -2.386438      3.149938
       111         1      0.826686     -1.431863      3.149938
       112         1      0.275562     -0.477288      3.149938
       113         1      1.928935     -1.431863      3.149938
       114         1      1.377811     -0.477288      3.149938
       115         1     -2.480059     -1.431863      3.149938
       116         1      2.480059     -0.477288      3.149938
       117         1     -1.377811     -1.431863      3.149938
       118         1     -1.928935     -0.477288      3.149938
       119         1     -0.275562     -1.431863      3.149938
       120         1     -0.826686     -0.477288      3.149938
       121         1      0.275562      0.795479      4.049920
       122         1      0.826686      1.750055      4.049920
       123         1      1.377811      0.795479      4.049920
       124         1      1.928935      1.750055      4.049920
       125         1      2.480059      0.795479      4.049920
       126         1     -2.480059      1.750055      4.049920
       127         1     -1.928935      0.795479      4.049920
       128         1     -1.377811      1.750055      4.049920
       129         1     -0.826686      0.795479      4.049920
       130         1     -0.275562      1.750055      4.049920
       131         1      0.275562      2.704630      4.049920
       132         1      0.826686     -2.068247      4.049920
       133         1      1.377811      2.704630      4.049920
       134         1      1.928935     -2.068247      4.049920
       135         1      2.480059      2.704630      4.049920
       136         1     -2.480059     -2.068247      4.049920
       137         1     -1.928935      2.704630      4.049920
       138         1     -1.377811     -2.068247      4.049920
       139         1     -0.826686      2.704630      4.049920
       140         1     -0.275562     -2.068247      4.049920
       141         1      0.275562     -1.113671      4.049920
       142         1      0.826686     -0.159096      4.049920
       143         1      1.377811     -1.113671      4.049920
       144         1      1.928935     -0.159096      4.049920
       145         1      2.480059     -1.113671      4.049920
       146         1     -2.480059     -0.159096      4.049920
       147         1     -1.928935     -1.113671      4.049920
       148         1     -1.377811     -0.159096      4.049920
       149         1     -0.826686     -1.113671      4.049920
       150         1     -0.275562     -0.159096      4.049920
       151         1      0.275562      0.159096      4.949902
       152         1      0.826686      1.113671      4.949902
       153         1      1.377811      0.159096      4.949902
       154         1      1.928935      1.113671      4.949902
       155         1      2.480059      0.159096      4.949902
       156         1     -2.480059      1.113671      4.949902
       157         1     -1.928935      0.159096      4.949902
       158         1     -1.377811      1.113671      4.949902
       159         1     -0.826686      0.159096      4.949902
       160         1     -0.275562      1.113671      4.949902
       161         1      0.275562      2.068247      4.949902
       162         1      0.826686     -2.704630      4.949902
       163         1      1.377811      2.068247      4.949902
       164         1      1.928935     -2.704630      4.949902
       165         1      2.480059      2.068247      4.949902
       166         1     -2.480059     -2.704630      4.949902
       167         1     -1.928935      2.068247      4.949902
       168         1     -1.377811     -2.704630      4.949902
       169         1     -0.826686      2.068247      4.949902
       170         1     -0.275562     -2.704630      4.949902
       171         1      0.275562     -1.750055      4.949902
       172         1      0.826686     -0.795479      4.949902
       173         1      1.377811     -1.750055      4.949902
       174         1      1.928935     -0.795479      4.949902
       175         1      2.480059     -1.750055      4.949902
       176         1     -2.480059     -0.795479      4.949902
       177         1     -1.928935     -1.750055      4.949902
       178         1     -1.377811     -0.795479      4.949902
       179         1     -0.826686     -1.750055      4.949902
       180         1     -0.275562     -0.795479      4.949902
       181         1      0.826686      0.477288      5.849885
       182         1      0.275562      1.431863      5.849885
       183         1      1.928935      0.477288      5.849885
       184         1      1.377811      1.431863      5.849885
       185         1     -2.480059      0.477288      5.849885
       186         1      2.480059      1.431863      5.849885
       187         1     -1.377811      0.477288      5.849885
       188         1     -1.928935      1.431863      5.849885
       189         1     -0.275562      0.477288      5.849885
       190         1     -0.826686      1.431863      5.849885
       191         1      0.826686      2.386438      5.849885
       192         1      0.275562     -2.386438      5.849885
       193         1      1.928935      2.386438      5.849885
       194         1      1.377811     -2.386438      5.849885
       195         1     -2.480059      2.386438      5.849885
       196         1      2.480059     -2.386438      5.849885
       197         1     -1.377811      2.386438      5.849885
       198         1     -1.928935     -2.386438      5.849885
       199         1     -0.275562      2.386438      5.849885
       200         1     -0.826686     -2.386438      5.849885
       201         1      0.826686     -1.431863      5.849885
       202         1      0.275562     -0.477288      5.849885
       203         1      1.928935     -1.431863      5.849885
       204         1      1.377811     -0.477288      5.849885
       205         1     -2.480059     -1.431863      5.849885
       206         1      2.480059     -0.477288      5.849885
       207         1     -1.377811     -1.431863      5.849885
       208         1     -1.928935     -0.477288      5.849885
       209         1     -0.275562     -1.431863      5.849885
       210         1     -0.826686     -0.477288      5.849885
       211         1      0.275562      0.795479      6.749867
       212         1      0.826686      1.750055      6.749867
       213         1      1.377811      0.795479      6.749867
       214         1      1.928935      1.750055      6.749867
       215         1      2.480059      0.795479      6.749867
       216         1     -2.480059      1.750055      6.749867
       217         1     -1.928935      0.795479      6.749867
       218         1     -1.377811      1.750055      6.749867
       219         1     -0.826686      0.795479      6.749867
       220         1     -0.275562      1.750055      6.749867
       221         1      0.275562      2.704630      6.749867
       222         1      0.826686     -2.068247      6.749867
       223         1      1.377811      2.704630      6.749867
       224         1      1.928935     -2.068247      6.749867
       225         1      2.480059      2.704630      6.749867
       226         1     -2.480059     -2.068247      6.749867
       227         1     -1.928935      2.704630      6.749867
       228         1     -1.377811     -2.068247      6.749867
       229         1     -0.826686      2.704630      6.749867
       230         1     -0.275562     -2.068247      6.749867
       231         1      0.275562     -1.113671      6.749867
       232         1      0.826686     -0.159096      6.749867
       233         1      1.377811     -1.113671      6.749867
       234         1      1.928935     -0.159096      6.749867
       235         1      2.480059     -1.113671      6.749867
       236         1     -2.480059     -0.159096      6.749867
       237         1     -1.928935     -1.113671      6.749867
       238         1     -1.377811     -0.159096      6.749867
       239         1     -0.826686     -1.113671      6.749867
       240         1     -0.275562     -0.159096      6.749867
       241         1      0.275562      0.159096      7.649849
       242         1      0.826686      1.113671      7.649849
       243         1      1.377811      0.159096      7.649849
       244         1      1.928935      1.113671      7.649849
       245         1      2.480059      0.159096      7.649849
       246         1     -2.480059      1.113671      7.649849
       247         1     -1.928935      0.159096      7.649849
       248         1     -1.377811      1.113671      7.649849
       249         1     -0.826686      0.159096      7.649849
       250         1     -0.275562      1.113671      7.649849
       251         1      0.275562      2.068247      7.649849
       252         1      0.826686     -2.704630      7.649849
       253         1      1.377811      2.068247      7.649849
       254         1      1.928935     -2.704630      7.649849
       255         1      2.480059      2.068247      7.649849
       256         1     -2.480059     -2.704630      7.649849
       257         1     -1.928935      2.068247      7.649849
       258         1     -1.377811     -2.704630      7.649849
       259         1     -0.826686      2.068247      7.649849
       260         1     -0.275562     -2.704630      7.649849
       261         1      0.275562     -1.750055      7.649849
       262         1      0.826686     -0.795479      7.649849
       263         1      1.377811     -1.750055      7.649849
       264         1      1.928935     -0.795479      7.649849
       265         1      2.480059     -1.750055      7.649849
       266         1     -2.480059     -0.795479      7.649849
       267         1     -1.928935     -1.750055      7.649849
       268         1     -1.377811     -0.795479      7.649849
       269         1     -0.826686     -1.750055      7.649849
       270         1     -0.275562     -0.795479      7.649849
       271         1      0.826686      0.477288      8.549832
       272         1      0.275562      1.431863      8.549832
       273         1      1.928935      0.477288      8.549832
       274         1      1.377811      1.431863      8.549832
       275         1     -2.480059      0.477288      8.549832
       276         1      2.480059      1.431863      8.549832
       277         1     -1.377811      0.477288      8.549832
       278         1     -1.928935      1.431863      8.549832
       279         1     -0.275562      0.477288      8.549832
       280         1     -0.826686      1.431863      8.549832
       281         1      0.826686      2.386438      8.549832
       282         1      0.275562     -2.386438      8.549832
       283         1      1.928935      2.386438      8.549832
       284         1      1.377811     -2.386438      8.549832
       285         1     -2.480059      2.386438      8.549832
       286         1      2.480059     -2.386438      8.549832
       287         1     -1.377811      2.386438      8.549832
       288         1     -1.928935     -2.386438      8.549832
       289         1     -0.275562      2.386438      8.549832
       290         1     -0.826686     -2.386438      8.549832
       291         1      0.826686     -1.431863      8.549832
       292         1      0.275562     -0.477288      8.549832
       293         1      1.928935     -1.431863      8.549832
       294         1      1.377811     -0.477288      8.549832
       295         1     -2.480059     -1.431863      8.549832
       296         1      2.480059     -0.477288      8.549832
       297         1     -1.377811     -1.431863      8.549832
       298         1     -1.928935     -0.477288      8.549832
       299         1     -0.275562     -1.431863      8.549832
       300         1     -0.826686     -0.477288      8.549832
       301         1      0.275562      0.795479      9.449814
       302         1      0.826686      1.750055      9.449814
       303         1      1.377811      0.795479      9.449814
       304         1      1.928935      1.750055      9.449814
       305         1      2.480059      0.795479      9.449814
       306         1     -2.480059      1.750055      9.449814
       307         1     -1.928935      0.795479      9.449814
       308         1     -1.377811      1.750055      9.449814
       309         1     -0.826686      0.795479      9.449814
       310         1     -0.275562      1.750055      9.449814
       311         1      0.275562      2.704630      9.449814
       312         1      0.826686     -2.068247      9.449814
       313         1      1.377811      2.704630      9.449814
       314         1      1.928935     -2.068247      9.449814
       315         1      2.480059      2.704630      9.449814
       316         1     -2.480059     -2.068247      9.449814
       317         1     -1.928935      2.704630      9.449814
       318         1     -1.377811     -2.068247      9.449814
       319         1     -0.826686      2.704630      9.449814
       320         1     -0.275562     -2.068247      9.449814
       321         1      0.275562     -1.113671      9.449814
       322         1      0.826686     -0.159096      9.449814
       323         1      1.377811     -1.113671      9.449814
       324         1      1.928935     -0.159096      9.449814
       325         1      2.480059     -1.113671      9.449814
       326         1     -2.480059     -0.159096      9.449814
       327         1     -1.928935     -1.113671      9.449814
       328         1     -1.377811     -0.159096      9.449814
       329         1     -0.826686     -1.113671      9.449814
       330         1     -0.275562     -0.159096      9.449814
       331         1      0.275562      0.159096     10.349796
       332         1      0.826686      1.113671     10.349796
       333         1      1.377811      0.159096     10.349796
       334         1      1.928935      1.113671     10.349796
       335         1      2.480059      0.159096     10.349796
       336         1     -2.480059      1.113671     10.349796
       337         1     -1.928935      0.159096     10.349796
       338         1     -1.377811      1.113671     10.349796
       339         1     -0.826686      0.159096     10.349796
       340         1     -0.275562      1.113671     10.349796
       341         1      0.275562      2.068247     10.349796
       342         1      0.826686     -2.704630     10.349796
       343         1      1.377811      2.068247     10.349796
       344         1      1.928935     -2.704630     10.349796
       345         1      2.480059      2.068247     10.349796
       346         1     -2.480059     -2.704630     10.349796
       347         1     -1.928935      2.068247     10.349796
       348         1     -1.377811     -2.704630     10.349796
       349         1     -0.826686      2.068247     10.349796
       350         1     -0.275562     -2.704630     10.349796
       351         1      0.275562     -1.750055     10.349796
       352         1      0.826686     -0.795479     10.349796
       353         1      1.377811     -1.750055     10.349796
       354         1      1.928935     -0.795479     10.349796
       355         1      2.480059     -1.750055     10.349796
       356         1     -2.480059     -0.795479     10.349796
       357         1     -1.928935     -1.750055     10.349796
       358         1     -1.377811     -0.795479     10.349796
       359         1     -0.826686     -1.750055     10.349796
       360         1     -0.275562     -0.795479     10.349796
       361         1      0.826686      0.477288     11.249778
       362         1      0.275562      1.431863     11.249778
       363         1      1.928935      0.477288     11.249778
       364         1      1.377811      1.431863     11.249778
       365         1     -2.480059      0.477288     11.249778
       366         1      2.480059      1.431863     11.249778
       367         1     -1.377811      0.477288     11.249778
       368         1     -1.928935      1.431863     11.249778
       369         1     -0.275562      0.477288     11.249778
       370         1     -0.826686      1.431863     11.249778
       371         1      0.826686      2.386438     11.249778
       372         1      0.275562     -2.386438     11.249778
       373         1      1.928935      2.386438     11.249778
       374         1      1.377811     -2.386438     11.249778
       375         1     -2.480059      2.386438     11.249778
       376         1      2.480059     -2.386438     11.249778
       377         1     -1.377811      2.386438     11.249778
       378         1     -1.928935     -2.386438     11.249778
       379         1     -0.275562      2.386438     11.249778
       380         1     -0.826686     -2.386438     11.249778
       381         1      0.826686     -1.431863     11.249778
       382         1      0.275562     -0.477288     11.249778
       383         1      1.928935     -1.431863     11.249778
       384         1      1.377811     -0.477288     11.249778
       385         1     -2.480059     -1.431863     11.249778
       386         1      2.480059     -0.477288     11.249778
       387         1     -1.377811     -1.431863     11.249778
       388         1     -1.928935     -0.477288     11.249778
       389         1     -0.275562     -1.431863     11.249778
       390         1     -0.826686     -0.477288     11.249778
       391         1      0.275562      0.795479     12.149761
       392         1      0.826686      1.750055     12.149761
       393         1      1.377811      0.795479     12.149761
       394         1      1.928935      1.750055     12.149761
       395         1      2.480059      0.795479     12.149761
       396         1     -2.480059      1.750055     12.149761
       397         1     -1.928935      0.795479     12.149761
       398         1     -1.377811      1.750055     12.149761
       399         1     -0.826686      0.795479     12.149761
       400         1     -0.275562      1.750055     12.149761
       401         1      0.275562      2.704630     12.149761
       402         1      0.826686     -2.068247     12.149761
       403         1      1.377811      2.704630     12.149761
       404         1      1.928935     -2.068247     12.149761
       405         1      2.480059      2.704630     12.149761
       406         1     -2.480059     -2.068247     12.149761
       407         1     -1.928935      2.704630     12.149761
       408         1     -1.377811     -2.068247     12.149761
       409         1     -0.826686      2.704630     12.149761
       410         1     -0.275562     -2.068247     12.149761
       411         1      0.275562     -1.113671     12.149761
       412         1      0.826686     -0.159096     12.149761
       413         1      1.377811     -1.113671     12.149761
       414         1      1.928935     -0.159096     12.149761
       415         1      2.480059     -1.113671     12.149761
       416         1     -2.480059     -0.159096     12.149761
       417         1     -1.928935     -1.113671     12.149761
       418         1     -1.377811     -0.159096     12.149761
       419         1     -0.826686     -1.113671     12.149761
       420         1     -0.275562     -0.159096     12.149761
       421         1      0.275562      0.159096     13.049743
       422         1      0.826686      1.113671     13.049743
       423         1      1.377811      0.159096     13.049743
       424         1      1.928935      1.113671     13.049743
       425         1      2.480059      0.159096     13.049743
       426         1     -2.480059      1.113671     13.049743
       427         1     -1.928935      0.159096     13.049743
       428         1     -1.377811      1.113671     13.049743
       429         1     -0.826686      0.159096     13.049743
       430         1     -0.275562      1.113671     13.049743
       431         1      0.275562      2.068247     13.049743
       432         1      0.826686     -2.704630     13.049743
       433         1      1.377811      2.068247     13.049743
       434         1      1.928935     -2.704630     13.049743
       435         1      2.480059      2.068247     13.049743
       436         1     -2.480059     -2.704630     13.049743
       437         1     -1.928935      2.068247     13.049743
       438         1     -1.377811     -2.704630     13.049743
       439         1     -0.826686      2.068247     13.049743
       440         1     -0.275562     -2.704630     13.049743
       441         1      0.275562     -1.750055     13.049743
       442         1      0.826686     -0.795479     13.049743
       443         1      1.377811     -1.750055     13.049743
       444         1      1.928935     -0.795479     13.049743
       445         1      2.480059     -1.750055     13.049743
       446         1     -2.480059     -0.795479     13.049743
       447         1     -1.928935     -1.750055     13.049743
       448         1     -1.377811     -0.795479     13.049743
       449         1     -0.826686     -1.750055     13.049743
       450         1     -0.275562     -0.795479     13.049743
       451         1      0.826686      0.477288     13.949725
       452         1      0.275562      1.431863     13.949725
       453         1      1.928935      0.477288     13.949725
       454         1      1.377811      1.431863     13.949725
       455         1     -2.480059      0.477288     13.949725
       456         1      2.480059      1.431863     13.949725
       457         1     -1.377811      0.477288     13.949725
       458         1     -1.928935      1.431863     13.949725
       459         1     -0.275562      0.477288     13.949725
       460         1     -0.826686      1.431863     13.949725
       461         1      0.826686      2.386438     13.949725
       462         1      0.275562     -2.386438     13.949725
       463         1      1.928935      2.386438     13.949725
       464         1      1.377811     -2.386438     13.949725
       465         1     -2.480059      2.386438     13.949725
       466         1      2.480059     -2.386438     13.949725
       467         1     -1.377811      2.386438     13.949725
       468         1     -1.928935     -2.386438     13.949725
       469         1     -0.275562      2.386438     13.949725
       470         1     -0.826686     -2.386438     13.949725
       471         1      0.826686     -1.431863     13.949725