 LAMMPS lj fcc 100 crystal

        6480 atoms
           1 atom types

   0.00000000       13.950649026012398      xlo xhi
   0.00000000       13.950649026012398      ylo yhi
   0.00000000       31.001442280027550      zlo zhi

 Atoms

           1           1  0.38751802850034439        1.1625540855010332       0.38751802850034439     
           2           1   1.1625540855010332       0.38751802850034439       0.38751802850034439     
           3           1   1.9375901425017219        1.1625540855010332       0.38751802850034439     
           4           1   2.7126261995024108       0.38751802850034439       0.38751802850034439     
           5           1   3.4876622565030995        1.1625540855010332       0.38751802850034439     
           6           1   4.2626983135037886       0.38751802850034439       0.38751802850034439     
           7           1   5.0377343705044773        1.1625540855010332       0.38751802850034439     
           8           1   5.8127704275051659       0.38751802850034439       0.38751802850034439     
           9           1   6.5878064845058546        1.1625540855010332       0.38751802850034439     
          10           1   7.3628425415065433       0.38751802850034439       0.38751802850034439     
          11           1   8.1378785985072319        1.1625540855010332       0.38751802850034439     
          12           1   8.9129146555079206       0.38751802850034439       0.38751802850034439     
          13           1   9.6879507125086093        1.1625540855010332       0.38751802850034439     
          14           1   10.462986769509298       0.38751802850034439       0.38751802850034439     
          15           1   11.238022826509987        1.1625540855010332       0.38751802850034439     
          16           1   12.013058883510675       0.38751802850034439       0.38751802850034439     
          17           1   12.788094940511366        1.1625540855010332       0.38751802850034439     
          18           1   13.563130997512054       0.38751802850034439       0.38751802850034439     
          19           1  0.38751802850034439        2.7126261995024108       0.38751802850034439     
          20           1   1.1625540855010332        1.9375901425017219       0.38751802850034439     
          21           1   1.9375901425017219        2.7126261995024108       0.38751802850034439     
          22           1   2.7126261995024108        1.9375901425017219       0.38751802850034439     
          23           1   3.4876622565030995        2.7126261995024108       0.38751802850034439     
          24           1   4.2626983135037886        1.9375901425017219       0.38751802850034439     
          25           1   5.0377343705044773        2.7126261995024108       0.38751802850034439     
          26           1   5.8127704275051659        1.9375901425017219       0.38751802850034439     
          27           1   6.5878064845058546        2.7126261995024108       0.38751802850034439     
          28           1   7.3628425415065433        1.9375901425017219       0.38751802850034439     
          29           1   8.1378785985072319        2.7126261995024108       0.38751802850034439     
          30           1   8.9129146555079206        1.9375901425017219       0.38751802850034439     
          31           1   9.6879507125086093        2.7126261995024108       0.38751802850034439     
          32           1   10.462986769509298        1.9375901425017219       0.38751802850034439     
          33           1   11.238022826509987        2.7126261995024108       0.38751802850034439     
          34           1   12.013058883510675        1.9375901425017219       0.38751802850034439     
          35           1   12.788094940511366        2.7126261995024108       0.38751802850034439     
          36           1   13.563130997512054        1.9375901425017219       0.38751802850034439     
          37           1  0.38751802850034439        4.2626983135037886       0.38751802850034439     
          38           1   1.1625540855010332        3.4876622565030995       0.38751802850034439     
          39           1   1.9375901425017219        4.2626983135037886       0.38751802850034439     
          40           1   2.7126261995024108        3.4876622565030995       0.38751802850034439     
          41           1   3.4876622565030995        4.2626983135037886       0.38751802850034439     
          42           1   4.2626983135037886        3.4876622565030995       0.38751802850034439     
          43           1   5.0377343705044773        4.2626983135037886       0.38751802850034439     
          44           1   5.8127704275051659        3.4876622565030995       0.38751802850034439     
          45           1   6.5878064845058546        4.2626983135037886       0.38751802850034439     
          46           1   7.3628425415065433        3.4876622565030995       0.38751802850034439     
          47           1   8.1378785985072319        4.2626983135037886       0.38751802850034439     
          48           1   8.9129146555079206        3.4876622565030995       0.38751802850034439     
          49           1   9.6879507125086093        4.2626983135037886       0.38751802850034439     
          50           1   10.462986769509298        3.4876622565030995       0.38751802850034439     
          51           1   11.238022826509987        4.2626983135037886       0.38751802850034439     
          52           1   12.013058883510675        3.4876622565030995       0.38751802850034439     
          53           1   12.788094940511366        4.2626983135037886       0.38751802850034439     
          54           1   13.563130997512054        3.4876622565030995       0.38751802850034439     
          55           1  0.38751802850034439        5.8127704275051659       0.38751802850034439     
          56           1   1.1625540855010332        5.0377343705044773       0.38751802850034439     
          57           1   1.9375901425017219        5.8127704275051659       0.38751802850034439     
          58           1   2.7126261995024108        5.0377343705044773       0.38751802850034439     
          59           1   3.4876622565030995        5.8127704275051659       0.38751802850034439     
          60           1   4.2626983135037886        5.0377343705044773       0.38751802850034439     
          61           1   5.0377343705044773        5.8127704275051659       0.38751802850034439     
          62           1   5.8127704275051659        5.0377343705044773       0.38751802850034439     
          63           1   6.5878064845058546        5.8127704275051659       0.38751802850034439     
          64           1   7.3628425415065433        5.0377343705044773       0.38751802850034439     
          65           1   8.1378785985072319        5.8127704275051659       0.38751802850034439     
          66           1   8.9129146555079206        5.0377343705044773       0.38751802850034439     
          67           1   9.6879507125086093        5.8127704275051659       0.38751802850034439     
          68           1   10.462986769509298        5.0377343705044773       0.38751802850034439     
          69           1   11.238022826509987        5.8127704275051659       0.38751802850034439     
          70           1   12.013058883510675        5.0377343705044773       0.38751802850034439     
          71           1   12.788094940511366        5.8127704275051659       0.38751802850034439     
          72           1   13.563130997512054        5.0377343705044773       0.38751802850034439     
          73           1  0.38751802850034439        7.3628425415065433       0.38751802850034439     
          74           1   1.1625540855010332        6.5878064845058546       0.38751802850034439     
          75           1   1.9375901425017219        7.3628425415065433       0.38751802850034439     
          76           1   2.7126261995024108        6.5878064845058546       0.38751802850034439     
          77           1   3.4876622565030995        7.3628425415065433       0.38751802850034439     
          78           1   4.2626983135037886        6.5878064845058546       0.38751802850034439     
          79           1   5.0377343705044773        7.3628425415065433       0.38751802850034439     
          80           1   5.8127704275051659        6.5878064845058546       0.38751802850034439     
          81           1   6.5878064845058546        7.3628425415065433       0.38751802850034439     
          82           1   7.3628425415065433        6.5878064845058546       0.38751802850034439     
          83           1   8.1378785985072319        7.3628425415065433       0.38751802850034439     
          84           1   8.9129146555079206        6.5878064845058546       0.38751802850034439     
          85           1   9.6879507125086093        7.3628425415065433       0.38751802850034439     
          86           1   10.462986769509298        6.5878064845058546       0.38751802850034439     
          87           1   11.238022826509987        7.3628425415065433       0.38751802850034439     
          88           1   12.013058883510675        6.5878064845058546       0.38751802850034439     
          89           1   12.788094940511366        7.3628425415065433       0.38751802850034439     
          90           1   13.563130997512054        6.5878064845058546       0.38751802850034439     
          91           1  0.38751802850034439        8.9129146555079206       0.38751802850034439     
          92           1   1.1625540855010332        8.1378785985072319       0.38751802850034439     
          93           1   1.9375901425017219        8.9129146555079206       0.38751802850034439     
          94           1   2.7126261995024108        8.1378785985072319       0.38751802850034439     
          95           1   3.4876622565030995        8.9129146555079206       0.38751802850034439     
          96           1   4.2626983135037886        8.1378785985072319       0.38751802850034439     
          97           1   5.0377343705044773        8.9129146555079206       0.38751802850034439     
          98           1   5.8127704275051659        8.1378785985072319       0.38751802850034439     
          99           1   6.5878064845058546        8.9129146555079206       0.38751802850034439     
         100           1   7.3628425415065433        8.1378785985072319       0.38751802850034439     
         101           1   8.1378785985072319        8.9129146555079206       0.38751802850034439     
         102           1   8.9129146555079206        8.1378785985072319       0.38751802850034439     
         103           1   9.6879507125086093        8.9129146555079206       0.38751802850034439     
         104           1   10.462986769509298        8.1378785985072319       0.38751802850034439     
         105           1   11.238022826509987        8.9129146555079206       0.38751802850034439     
         106           1   12.013058883510675        8.1378785985072319       0.38751802850034439     
         107           1   12.788094940511366        8.9129146555079206       0.38751802850034439     
         108           1   13.563130997512054        8.1378785985072319       0.38751802850034439     
         109           1  0.38751802850034439        10.462986769509298       0.38751802850034439     
         110           1   1.1625540855010332        9.6879507125086093       0.38751802850034439     
         111           1   1.9375901425017219        10.462986769509298       0.38751802850034439     
         112           1   2.7126261995024108        9.6879507125086093       0.38751802850034439     
         113           1   3.4876622565030995        10.462986769509298       0.38751802850034439     
         114           1   4.2626983135037886        9.6879507125086093       0.38751802850034439     
         115           1   5.0377343705044773        10.462986769509298       0.38751802850034439     
         116           1   5.8127704275051659        9.6879507125086093       0.38751802850034439     
         117           1   6.5878064845058546        10.462986769509298       0.38751802850034439     
         118           1   7.3628425415065433        9.6879507125086093       0.38751802850034439     
         119           1   8.1378785985072319        10.462986769509298       0.38751802850034439     
         120           1   8.9129146555079206        9.6879507125086093       0.38751802850034439     
         121           1   9.6879507125086093        10.462986769509298       0.38751802850034439     
         122           1   10.462986769509298        9.6879507125086093       0.38751802850034439     
         123           1   11.238022826509987        10.462986769509298       0.38751802850034439     
         124           1   12.013058883510675        9.6879507125086093       0.38751802850034439     
         125           1   12.788094940511366        10.462986769509298       0.38751802850034439     
         126           1   13.563130997512054        9.6879507125086093       0.38751802850034439     
         127           1  0.38751802850034439        12.013058883510675       0.38751802850034439     
         128           1   1.1625540855010332        11.238022826509987       0.38751802850034439     
         129           1   1.9375901425017219        12.013058883510675       0.38751802850034439     
         130           1   2.7126261995024108        11.238022826509987       0.38751802850034439     
         131           1   3.4876622565030995        12.013058883510675       0.38751802850034439     
         132           1   4.2626983135037886        11.238022826509987       0.38751802850034439     
         133           1   5.0377343705044773        12.013058883510675       0.38751802850034439     
         134           1   5.8127704275051659        11.238022826509987       0.38751802850034439     
         135           1   6.5878064845058546        12.013058883510675       0.38751802850034439     
         136           1   7.3628425415065433        11.238022826509987       0.38751802850034439     
         137           1   8.1378785985072319        12.013058883510675       0.38751802850034439     
         138           1   8.9129146555079206        11.238022826509987       0.38751802850034439     
         139           1   9.6879507125086093        12.013058883510675       0.38751802850034439     
         140           1   10.462986769509298        11.238022826509987       0.38751802850034439     
         141           1   11.238022826509987        12.013058883510675       0.38751802850034439     
         142           1   12.013058883510675        11.238022826509987       0.38751802850034439     
         143           1   12.788094940511366        12.013058883510675       0.38751802850034439     
         144           1   13.563130997512054        11.238022826509987       0.38751802850034439     
         145           1  0.38751802850034439        13.563130997512054       0.38751802850034439     
         146           1   1.1625540855010332        12.788094940511366       0.38751802850034439     
         147           1   1.9375901425017219        13.563130997512054       0.38751802850034439     
         148           1   2.7126261995024108        12.788094940511366       0.38751802850034439     
         149           1   3.4876622565030995        13.563130997512054       0.38751802850034439     
         150           1   4.2626983135037886        12.788094940511366       0.38751802850034439     
         151           1   5.0377343705044773        13.563130997512054       0.38751802850034439     
         152           1   5.8127704275051659        12.788094940511366       0.38751802850034439     
         153           1   6.5878064845058546        13.563130997512054       0.38751802850034439     
         154           1   7.3628425415065433        12.788094940511366       0.38751802850034439     
         155           1   8.1378785985072319        13.563130997512054       0.38751802850034439     
         156           1   8.9129146555079206        12.788094940511366       0.38751802850034439     
         157           1   9.6879507125086093        13.563130997512054       0.38751802850034439     
         158           1   10.462986769509298        12.788094940511366       0.38751802850034439     
         159           1   11.238022826509987        13.563130997512054       0.38751802850034439     
         160           1   12.013058883510675        12.788094940511366       0.38751802850034439     
         161           1   12.788094940511366        13.563130997512054       0.38751802850034439     
         162           1   13.563130997512054        12.788094940511366       0.38751802850034439     
         163           1  0.38751802850034439       0.38751802850034439        1.1625540855010332     
         164           1   1.1625540855010332        1.1625540855010332        1.1625540855010332     
         165           1   1.9375901425017219       0.38751802850034439        1.1625540855010332     
         166           1   2.7126261995024108        1.1625540855010332        1.1625540855010332     
         167           1   3.4876622565030995       0.38751802850034439        1.1625540855010332     
         168           1   4.2626983135037886        1.1625540855010332        1.1625540855010332     
         169           1   5.0377343705044773       0.38751802850034439        1.1625540855010332     
         170           1   5.8127704275051659        1.1625540855010332        1.1625540855010332     
         171           1   6.5878064845058546       0.38751802850034439        1.1625540855010332     
         172           1   7.3628425415065433        1.1625540855010332        1.1625540855010332     
         173           1   8.1378785985072319       0.38751802850034439        1.1625540855010332     
         174           1   8.9129146555079206        1.1625540855010332        1.1625540855010332     
         175           1   9.6879507125086093       0.38751802850034439        1.1625540855010332     
         176           1   10.462986769509298        1.1625540855010332        1.1625540855010332     
         177           1   11.238022826509987       0.38751802850034439        1.1625540855010332     
         178           1   12.013058883510675        1.1625540855010332        1.1625540855010332     
         179           1   12.788094940511366       0.38751802850034439        1.1625540855010332     
         180           1   13.563130997512054        1.1625540855010332        1.1625540855010332     
         181           1  0.38751802850034439        1.9375901425017219        1.1625540855010332     
         182           1   1.1625540855010332        2.7126261995024108        1.1625540855010332     
         183           1   1.9375901425017219        1.9375901425017219        1.1625540855010332     
         184           1   2.7126261995024108        2.7126261995024108        1.1625540855010332     
         185           1   3.4876622565030995        1.9375901425017219        1.1625540855010332     
         186           1   4.2626983135037886        2.7126261995024108        1.1625540855010332     
         187           1   5.0377343705044773        1.9375901425017219        1.1625540855010332     
         188           1   5.8127704275051659        2.7126261995024108        1.1625540855010332     
         189           1   6.5878064845058546        1.9375901425017219        1.1625540855010332     
         190           1   7.3628425415065433        2.7126261995024108        1.1625540855010332     
         191           1   8.1378785985072319        1.9375901425017219        1.1625540855010332     
         192           1   8.9129146555079206        2.7126261995024108        1.1625540855010332     
         193           1   9.6879507125086093        1.9375901425017219        1.1625540855010332     
         194           1   10.462986769509298        2.7126261995024108        1.1625540855010332     
         195           1   11.238022826509987        1.9375901425017219        1.1625540855010332     
         196           1   12.013058883510675        2.7126261995024108        1.1625540855010332     
         197           1   12.788094940511366        1.9375901425017219        1.1625540855010332     
         198           1   13.563130997512054        2.7126261995024108        1.1625540855010332     
         199           1  0.38751802850034439        3.4876622565030995        1.1625540855010332     
         200           1   1.1625540855010332        4.2626983135037886        1.1625540855010332     
         201           1   1.9375901425017219        3.4876622565030995        1.1625540855010332     
         202           1   2.7126261995024108        4.2626983135037886        1.1625540855010332     
         203           1   3.4876622565030995        3.4876622565030995        1.1625540855010332     
         204           1   4.2626983135037886        4.2626983135037886        1.1625540855010332     
         205           1   5.0377343705044773        3.4876622565030995        1.1625540855010332     
         206           1   5.8127704275051659        4.2626983135037886        1.1625540855010332     
         207           1   6.5878064845058546        3.4876622565030995        1.1625540855010332     
         208           1   7.3628425415065433        4.2626983135037886        1.1625540855010332     
         209           1   8.1378785985072319        3.4876622565030995        1.1625540855010332     
         210           1   8.9129146555079206        4.2626983135037886        1.1625540855010332     
         211           1   9.6879507125086093        3.4876622565030995        1.1625540855010332     
         212           1   10.462986769509298        4.2626983135037886        1.1625540855010332     
         213           1   11.238022826509987        3.4876622565030995        1.1625540855010332     
         214           1   12.013058883510675        4.2626983135037886        1.1625540855010332     
         215           1   12.788094940511366        3.4876622565030995        1.1625540855010332     
         216           1   13.563130997512054        4.2626983135037886        1.1625540855010332     
         217           1  0.38751802850034439        5.0377343705044773        1.1625540855010332     
         218           1   1.1625540855010332        5.8127704275051659        1.1625540855010332     
         219           1   1.9375901425017219        5.0377343705044773        1.1625540855010332     
         220           1   2.7126261995024108        5.8127704275051659        1.1625540855010332     
         221           1   3.4876622565030995        5.0377343705044773        1.1625540855010332     
         222           1   4.2626983135037886        5.8127704275051659        1.1625540855010332     
         223           1   5.0377343705044773        5.0377343705044773        1.1625540855010332     
         224           1   5.8127704275051659        5.8127704275051659        1.1625540855010332     
         225           1   6.5878064845058546        5.0377343705044773        1.1625540855010332     
         226           1   7.3628425415065433        5.8127704275051659        1.1625540855010332     
         227           1   8.1378785985072319        5.0377343705044773        1.1625540855010332     
         228           1   8.9129146555079206        5.8127704275051659        1.1625540855010332     
         229           1   9.6879507125086093        5.0377343705044773        1.1625540855010332     
         230           1   10.462986769509298        5.8127704275051659        1.1625540855010332     
         231           1   11.238022826509987        5.0377343705044773        1.1625540855010332     
         232           1   12.013058883510675        5.8127704275051659        1.1625540855010332     
         233           1   12.788094940511366        5.0377343705044773        1.1625540855010332     
         234           1   13.563130997512054        5.8127704275051659        1.1625540855010332     
         235           1  0.38751802850034439        6.5878064845058546        1.1625540855010332     
         236           1   1.1625540855010332        7.3628425415065433        1.1625540855010332     
         237           1   1.9375901425017219        6.5878064845058546        1.1625540855010332     
         238           1   2.7126261995024108        7.3628425415065433        1.1625540855010332     
         239           1   3.4876622565030995        6.5878064845058546        1.1625540855010332     
         240           1   4.2626983135037886        7.3628425415065433        1.1625540855010332     
         241           1   5.0377343705044773        6.5878064845058546        1.1625540855010332     
         242           1   5.8127704275051659        7.3628425415065433        1.1625540855010332     
         243           1   6.5878064845058546        6.5878064845058546        1.1625540855010332     
         244           1   7.3628425415065433        7.3628425415065433        1.1625540855010332     
         245           1   8.1378785985072319        6.5878064845058546        1.1625540855010332     
         246           1   8.9129146555079206        7.3628425415065433        1.1625540855010332     
         247           1   9.6879507125086093        6.5878064845058546        1.1625540855010332     
         248           1   10.462986769509298        7.3628425415065433        1.1625540855010332     
         249           1   11.238022826509987        6.5878064845058546        1.1625540855010332     
         250           1   12.013058883510675        7.3628425415065433        1.1625540855010332     
         251           1   12.788094940511366        6.5878064845058546        1.1625540855010332     
         252           1   13.563130997512054        7.3628425415065433        1.1625540855010332     
         253           1  0.38751802850034439        8.1378785985072319        1.1625540855010332     
         254           1   1.1625540855010332        8.9129146555079206        1.1625540855010332     
         255           1   1.9375901425017219        8.1378785985072319        1.1625540855010332     
         256           1   2.7126261995024108        8.9129146555079206        1.1625540855010332     
         257           1   3.4876622565030995        8.1378785985072319        1.1625540855010332     
         258           1   4.2626983135037886        8.9129146555079206        1.1625540855010332     
         259           1   5.0377343705044773        8.1378785985072319        1.1625540855010332     
         260           1   5.8127704275051659        8.9129146555079206        1.1625540855010332     
         261           1   6.5878064845058546        8.1378785985072319        1.1625540855010332     
         262           1   7.3628425415065433        8.9129146555079206        1.1625540855010332     
         263           1   8.1378785985072319        8.1378785985072319        1.1625540855010332     
         264           1   8.9129146555079206        8.9129146555079206        1.1625540855010332     
         265           1   9.6879507125086093        8.1378785985072319        1.1625540855010332     
         266           1   10.462986769509298        8.9129146555079206        1.1625540855010332     
         267           1   11.238022826509987        8.1378785985072319        1.1625540855010332     
         268           1   12.013058883510675        8.9129146555079206        1.1625540855010332     
         269           1   12.788094940511366        8.1378785985072319        1.1625540855010332     
         270           1   13.563130997512054        8.9129146555079206        1.1625540855010332     
         271           1  0.38751802850034439        9.6879507125086093        1.1625540855010332     
         272           1   1.1625540855010332        10.462986769509298        1.1625540855010332     
         273           1   1.9375901425017219        9.6879507125086093        1.1625540855010332     
         274           1   2.7126261995024108        10.462986769509298        1.1625540855010332     
         275           1   3.4876622565030995        9.6879507125086093        1.1625540855010332     
         276           1   4.2626983135037886        10.462986769509298        1.1625540855010332     
         277           1   5.0377343705044773        9.6879507125086093        1.1625540855010332     
         278           1   5.8127704275051659        10.462986769509298        1.1625540855010332     
         279           1   6.5878064845058546        9.6879507125086093        1.1625540855010332     
         280           1   7.3628425415065433        10.462986769509298        1.1625540855010332     
         281           1   8.1378785985072319        9.6879507125086093        1.1625540855010332     
         282           1   8.9129146555079206        10.462986769509298        1.1625540855010332     
         283           1   9.6879507125086093        9.6879507125086093        1.1625540855010332     
         284           1   10.462986769509298        10.462986769509298        1.1625540855010332     
         285           1   11.238022826509987        9.6879507125086093        1.1625540855010332     
         286           1   12.013058883510675        10.462986769509298        1.1625540855010332     
         287           1   12.788094940511366        9.6879507125086093        1.1625540855010332     
         288           1   13.563130997512054        10.462986769509298        1.1625540855010332     