 LAMMPS lj fcc 111 crystal

        5184 atoms
           1 atom types

   0.00000000       13.152798037662496      xlo xhi
   0.00000000       13.950649026012398      ylo yhi
   0.00000000       26.305596075324988      zlo zhi

 Atoms

           1           1  0.82204987735390600       0.38751802850034439       0.27401662578463531     
           2           1   1.9181163804924473       0.38751802850034439       0.27401662578463531     
           3           1   3.0141828836309883       0.38751802850034439       0.27401662578463531     
           4           1   4.1102493867695298       0.38751802850034439       0.27401662578463531     
           5           1   5.2063158899080708       0.38751802850034439       0.27401662578463531     
           6           1   6.3023823930466119       0.38751802850034439       0.27401662578463531     
           7           1   7.3984488961851538       0.38751802850034439       0.27401662578463531     
           8           1   8.4945153993236939       0.38751802850034439       0.27401662578463531     
           9           1   9.5905819024622367       0.38751802850034439       0.27401662578463531     
          10           1   10.686648405600778       0.38751802850034439       0.27401662578463531     
          11           1   11.782714908739319       0.38751802850034439       0.27401662578463531     
          12           1   12.878781411877860       0.38751802850034439       0.27401662578463531     
          13           1  0.82204987735390600        1.9375901425017219       0.27401662578463531     
          14           1   1.9181163804924473        1.9375901425017219       0.27401662578463531     
          15           1   3.0141828836309883        1.9375901425017219       0.27401662578463531     
          16           1   4.1102493867695298        1.9375901425017219       0.27401662578463531     
          17           1   5.2063158899080708        1.9375901425017219       0.27401662578463531     
          18           1   6.3023823930466119        1.9375901425017219       0.27401662578463531     
          19           1   7.3984488961851538        1.9375901425017219       0.27401662578463531     
          20           1   8.4945153993236939        1.9375901425017219       0.27401662578463531     
          21           1   9.5905819024622367        1.9375901425017219       0.27401662578463531     
          22           1   10.686648405600778        1.9375901425017219       0.27401662578463531     
          23           1   11.782714908739319        1.9375901425017219       0.27401662578463531     
          24           1   12.878781411877860        1.9375901425017219       0.27401662578463531     
          25           1  0.82204987735390600        3.4876622565030995       0.27401662578463531     
          26           1   1.9181163804924473        3.4876622565030995       0.27401662578463531     
          27           1   3.0141828836309883        3.4876622565030995       0.27401662578463531     
          28           1   4.1102493867695298        3.4876622565030995       0.27401662578463531     
          29           1   5.2063158899080708        3.4876622565030995       0.27401662578463531     
          30           1   6.3023823930466119        3.4876622565030995       0.27401662578463531     
          31           1   7.3984488961851538        3.4876622565030995       0.27401662578463531     
          32           1   8.4945153993236939        3.4876622565030995       0.27401662578463531     
          33           1   9.5905819024622367        3.4876622565030995       0.27401662578463531     
          34           1   10.686648405600778        3.4876622565030995       0.27401662578463531     
          35           1   11.782714908739319        3.4876622565030995       0.27401662578463531     
          36           1   12.878781411877860        3.4876622565030995       0.27401662578463531     
          37           1  0.82204987735390600        5.0377343705044773       0.27401662578463531     
          38           1   1.9181163804924473        5.0377343705044773       0.27401662578463531     
          39           1   3.0141828836309883        5.0377343705044773       0.27401662578463531     
          40           1   4.1102493867695298        5.0377343705044773       0.27401662578463531     
          41           1   5.2063158899080708        5.0377343705044773       0.27401662578463531     
          42           1   6.3023823930466119        5.0377343705044773       0.27401662578463531     
          43           1   7.3984488961851538        5.0377343705044773       0.27401662578463531     
          44           1   8.4945153993236939        5.0377343705044773       0.27401662578463531     
          45           1   9.5905819024622367        5.0377343705044773       0.27401662578463531     
          46           1   10.686648405600778        5.0377343705044773       0.27401662578463531     
          47           1   11.782714908739319        5.0377343705044773       0.27401662578463531     
          48           1   12.878781411877860        5.0377343705044773       0.27401662578463531     
          49           1  0.82204987735390600        6.5878064845058546       0.27401662578463531     
          50           1   1.9181163804924473        6.5878064845058546       0.27401662578463531     
          51           1   3.0141828836309883        6.5878064845058546       0.27401662578463531     
          52           1   4.1102493867695298        6.5878064845058546       0.27401662578463531     
          53           1   5.2063158899080708        6.5878064845058546       0.27401662578463531     
          54           1   6.3023823930466119        6.5878064845058546       0.27401662578463531     
          55           1   7.3984488961851538        6.5878064845058546       0.27401662578463531     
          56           1   8.4945153993236939        6.5878064845058546       0.27401662578463531     
          57           1   9.5905819024622367        6.5878064845058546       0.27401662578463531     
          58           1   10.686648405600778        6.5878064845058546       0.27401662578463531     
          59           1   11.782714908739319        6.5878064845058546       0.27401662578463531     
          60           1   12.878781411877860        6.5878064845058546       0.27401662578463531     
          61           1  0.82204987735390600        8.1378785985072319       0.27401662578463531     
          62           1   1.9181163804924473        8.1378785985072319       0.27401662578463531     
          63           1   3.0141828836309883        8.1378785985072319       0.27401662578463531     
          64           1   4.1102493867695298        8.1378785985072319       0.27401662578463531     
          65           1   5.2063158899080708        8.1378785985072319       0.27401662578463531     
          66           1   6.3023823930466119        8.1378785985072319       0.27401662578463531     
          67           1   7.3984488961851538        8.1378785985072319       0.27401662578463531     
          68           1   8.4945153993236939        8.1378785985072319       0.27401662578463531     
          69           1   9.5905819024622367        8.1378785985072319       0.27401662578463531     
          70           1   10.686648405600778        8.1378785985072319       0.27401662578463531     
          71           1   11.782714908739319        8.1378785985072319       0.27401662578463531     
          72           1   12.878781411877860        8.1378785985072319       0.27401662578463531     
          73           1  0.82204987735390600        9.6879507125086093       0.27401662578463531     
          74           1   1.9181163804924473        9.6879507125086093       0.27401662578463531     
          75           1   3.0141828836309883        9.6879507125086093       0.27401662578463531     
          76           1   4.1102493867695298        9.6879507125086093       0.27401662578463531     
          77           1   5.2063158899080708        9.6879507125086093       0.27401662578463531     
          78           1   6.3023823930466119        9.6879507125086093       0.27401662578463531     
          79           1   7.3984488961851538        9.6879507125086093       0.27401662578463531     
          80           1   8.4945153993236939        9.6879507125086093       0.27401662578463531     
          81           1   9.5905819024622367        9.6879507125086093       0.27401662578463531     
          82           1   10.686648405600778        9.6879507125086093       0.27401662578463531     
          83           1   11.782714908739319        9.6879507125086093       0.27401662578463531     
          84           1   12.878781411877860        9.6879507125086093       0.27401662578463531     
          85           1  0.82204987735390600        11.238022826509987       0.27401662578463531     
          86           1   1.9181163804924473        11.238022826509987       0.27401662578463531     
          87           1   3.0141828836309883        11.238022826509987       0.27401662578463531     
          88           1   4.1102493867695298        11.238022826509987       0.27401662578463531     
          89           1   5.2063158899080708        11.238022826509987       0.27401662578463531     
          90           1   6.3023823930466119        11.238022826509987       0.27401662578463531     
          91           1   7.3984488961851538        11.238022826509987       0.27401662578463531     
          92           1   8.4945153993236939        11.238022826509987       0.27401662578463531     
          93           1   9.5905819024622367        11.238022826509987       0.27401662578463531     
          94           1   10.686648405600778        11.238022826509987       0.27401662578463531     
          95           1   11.782714908739319        11.238022826509987       0.27401662578463531     
          96           1   12.878781411877860        11.238022826509987       0.27401662578463531     
          97           1  0.82204987735390600        12.788094940511366       0.27401662578463531     
          98           1   1.9181163804924473        12.788094940511366       0.27401662578463531     
          99           1   3.0141828836309883        12.788094940511366       0.27401662578463531     
         100           1   4.1102493867695298        12.788094940511366       0.27401662578463531     
         101           1   5.2063158899080708        12.788094940511366       0.27401662578463531     
         102           1   6.3023823930466119        12.788094940511366       0.27401662578463531     
         103           1   7.3984488961851538        12.788094940511366       0.27401662578463531     
         104           1   8.4945153993236939        12.788094940511366       0.27401662578463531     
         105           1   9.5905819024622367        12.788094940511366       0.27401662578463531     
         106           1   10.686648405600778        12.788094940511366       0.27401662578463531     
         107           1   11.782714908739319        12.788094940511366       0.27401662578463531     
         108           1   12.878781411877860        12.788094940511366       0.27401662578463531     
         109           1  0.27401662578463531        1.1625540855010332       0.82204987735390600     
         110           1   1.3700831289231765        1.1625540855010332       0.82204987735390600     
         111           1   2.4661496320617178        1.1625540855010332       0.82204987735390600     
         112           1   3.5622161352002593        1.1625540855010332       0.82204987735390600     
         113           1   4.6582826383388003        1.1625540855010332       0.82204987735390600     
         114           1   5.7543491414773413        1.1625540855010332       0.82204987735390600     
         115           1   6.8504156446158833        1.1625540855010332       0.82204987735390600     
         116           1   7.9464821477544243        1.1625540855010332       0.82204987735390600     
         117           1   9.0425486508929662        1.1625540855010332       0.82204987735390600     
         118           1   10.138615154031507        1.1625540855010332       0.82204987735390600     
         119           1   11.234681657170048        1.1625540855010332       0.82204987735390600     
         120           1   12.330748160308589        1.1625540855010332       0.82204987735390600     
         121           1  0.27401662578463531        2.7126261995024108       0.82204987735390600     
         122           1   1.3700831289231765        2.7126261995024108       0.82204987735390600     
         123           1   2.4661496320617178        2.7126261995024108       0.82204987735390600     
         124           1   3.5622161352002593        2.7126261995024108       0.82204987735390600     
         125           1   4.6582826383388003        2.7126261995024108       0.82204987735390600     
         126           1   5.7543491414773413        2.7126261995024108       0.82204987735390600     
         127           1   6.8504156446158833        2.7126261995024108       0.82204987735390600     
         128           1   7.9464821477544243        2.7126261995024108       0.82204987735390600     
         129           1   9.0425486508929662        2.7126261995024108       0.82204987735390600     
         130           1   10.138615154031507        2.7126261995024108       0.82204987735390600     
         131           1   11.234681657170048        2.7126261995024108       0.82204987735390600     
         132           1   12.330748160308589        2.7126261995024108       0.82204987735390600     
         133           1  0.27401662578463531        4.2626983135037886       0.82204987735390600     
         134           1   1.3700831289231765        4.2626983135037886       0.82204987735390600     
         135           1   2.4661496320617178        4.2626983135037886       0.82204987735390600     
         136           1   3.5622161352002593        4.2626983135037886       0.82204987735390600     
         137           1   4.6582826383388003        4.2626983135037886       0.82204987735390600     
         138           1   5.7543491414773413        4.2626983135037886       0.82204987735390600     
         139           1   6.8504156446158833        4.2626983135037886       0.82204987735390600     
         140           1   7.9464821477544243        4.2626983135037886       0.82204987735390600     
         141           1   9.0425486508929662        4.2626983135037886       0.82204987735390600     
         142           1   10.138615154031507        4.2626983135037886       0.82204987735390600     
         143           1   11.234681657170048        4.2626983135037886       0.82204987735390600     
         144           1   12.330748160308589        4.2626983135037886       0.82204987735390600     
         145           1  0.27401662578463531        5.8127704275051659       0.82204987735390600     
         146           1   1.3700831289231765        5.8127704275051659       0.82204987735390600     
         147           1   2.4661496320617178        5.8127704275051659       0.82204987735390600     
         148           1   3.5622161352002593        5.8127704275051659       0.82204987735390600     
         149           1   4.6582826383388003        5.8127704275051659       0.82204987735390600     
         150           1   5.7543491414773413        5.8127704275051659       0.82204987735390600     
         151           1   6.8504156446158833        5.8127704275051659       0.82204987735390600     
         152           1   7.9464821477544243        5.8127704275051659       0.82204987735390600     
         153           1   9.0425486508929662        5.8127704275051659       0.82204987735390600     
         154           1   10.138615154031507        5.8127704275051659       0.82204987735390600     
         155           1   11.234681657170048        5.8127704275051659       0.82204987735390600     
         156           1   12.330748160308589        5.8127704275051659       0.82204987735390600     
         157           1  0.27401662578463531        7.3628425415065433       0.82204987735390600     
         158           1   1.3700831289231765        7.3628425415065433       0.82204987735390600     
         159           1   2.4661496320617178        7.3628425415065433       0.82204987735390600     
         160           1   3.5622161352002593        7.3628425415065433       0.82204987735390600     
         161           1   4.6582826383388003        7.3628425415065433       0.82204987735390600     
         162           1   5.7543491414773413        7.3628425415065433       0.82204987735390600     
         163           1   6.8504156446158833        7.3628425415065433       0.82204987735390600     
         164           1   7.9464821477544243        7.3628425415065433       0.82204987735390600     
         165           1   9.0425486508929662        7.3628425415065433       0.82204987735390600     
         166           1   10.138615154031507        7.3628425415065433       0.82204987735390600     
         167           1   11.234681657170048        7.3628425415065433       0.82204987735390600     
         168           1   12.330748160308589        7.3628425415065433       0.82204987735390600     
         169           1  0.27401662578463531        8.9129146555079206       0.82204987735390600     
         170           1   1.3700831289231765        8.9129146555079206       0.82204987735390600     
         171           1   2.4661496320617178        8.9129146555079206       0.82204987735390600     
         172           1   3.5622161352002593        8.9129146555079206       0.82204987735390600     
         173           1   4.6582826383388003        8.9129146555079206       0.82204987735390600     
         174           1   5.7543491414773413        8.9129146555079206       0.82204987735390600     
         175           1   6.8504156446158833        8.9129146555079206       0.82204987735390600     
         176           1   7.9464821477544243        8.9129146555079206       0.82204987735390600     
         177           1   9.0425486508929662        8.9129146555079206       0.82204987735390600     
         178           1   10.138615154031507        8.9129146555079206       0.82204987735390600     
         179           1   11.234681657170048        8.9129146555079206       0.82204987735390600     
         180           1   12.330748160308589        8.9129146555079206       0.82204987735390600     
         181           1  0.27401662578463531        10.462986769509298       0.82204987735390600     
         182           1   1.3700831289231765        10.462986769509298       0.82204987735390600     
         183           1   2.4661496320617178        10.462986769509298       0.82204987735390600     
         184           1   3.5622161352002593        10.462986769509298       0.82204987735390600     
         185           1   4.6582826383388003        10.462986769509298       0.82204987735390600     
         186           1   5.7543491414773413        10.462986769509298       0.82204987735390600     
         187           1   6.8504156446158833        10.462986769509298       0.82204987735390600     
         188           1   7.9464821477544243        10.462986769509298       0.82204987735390600     
         189           1   9.0425486508929662        10.462986769509298       0.82204987735390600     
         190           1   10.138615154031507        10.462986769509298       0.82204987735390600     
         191           1   11.234681657170048        10.462986769509298       0.82204987735390600     
         192           1   12.330748160308589        10.462986769509298       0.82204987735390600     
         193           1  0.27401662578463531        12.013058883510675       0.82204987735390600     
         194           1   1.3700831289231765        12.013058883510675       0.82204987735390600     
         195           1   2.4661496320617178        12.013058883510675       0.82204987735390600     
         196           1   3.5622161352002593        12.013058883510675       0.82204987735390600     
         197           1   4.6582826383388003        12.013058883510675       0.82204987735390600     
         198           1   5.7543491414773413        12.013058883510675       0.82204987735390600     
         199           1   6.8504156446158833        12.013058883510675       0.82204987735390600     
         200           1   7.9464821477544243        12.013058883510675       0.82204987735390600     
         201           1   9.0425486508929662        12.013058883510675       0.82204987735390600     
         202           1   10.138615154031507        12.013058883510675       0.82204987735390600     
         203           1   11.234681657170048        12.013058883510675       0.82204987735390600     
         204           1   12.330748160308589        12.013058883510675       0.82204987735390600     
         205           1  0.27401662578463531        13.563130997512054       0.82204987735390600     
         206           1   1.3700831289231765        13.563130997512054       0.82204987735390600     
         207           1   2.4661496320617178        13.563130997512054       0.82204987735390600     
         208           1   3.5622161352002593        13.563130997512054       0.82204987735390600     
         209           1   4.6582826383388003        13.563130997512054       0.82204987735390600     
         210           1   5.7543491414773413        13.563130997512054       0.82204987735390600     
         211           1   6.8504156446158833        13.563130997512054       0.82204987735390600     
         212           1   7.9464821477544243        13.563130997512054       0.82204987735390600     
         213           1   9.0425486508929662        13.563130997512054       0.82204987735390600     
         214           1   10.138615154031507        13.563130997512054       0.82204987735390600     
         215           1   11.234681657170048        13.563130997512054       0.82204987735390600     
         216           1   12.330748160308589        13.563130997512054       0.82204987735390600     
         217           1  0.82204987735390600       0.38751802850034439        1.3700831289231765     
         218           1   1.9181163804924473       0.38751802850034439        1.3700831289231765     
         219           1   3.0141828836309883       0.38751802850034439        1.3700831289231765     
         220           1   4.1102493867695298       0.38751802850034439        1.3700831289231765     
         221           1   5.2063158899080708       0.38751802850034439        1.3700831289231765     
         222           1   6.3023823930466119       0.38751802850034439        1.3700831289231765     
         223           1   7.3984488961851538       0.38751802850034439        1.3700831289231765     
         224           1   8.4945153993236939       0.38751802850034439        1.3700831289231765     
         225           1   9.5905819024622367       0.38751802850034439        1.3700831289231765     
         226           1   10.686648405600778       0.38751802850034439        1.3700831289231765     
         227           1   11.782714908739319       0.38751802850034439        1.3700831289231765     
         228           1   12.878781411877860       0.38751802850034439        1.3700831289231765     
         229           1  0.82204987735390600        1.9375901425017219        1.3700831289231765     
         230           1   1.9181163804924473        1.9375901425017219        1.3700831289231765     
         231           1   3.0141828836309883        1.9375901425017219        1.3700831289231765     
         232           1   4.1102493867695298        1.9375901425017219        1.3700831289231765     
         233           1   5.2063158899080708        1.9375901425017219        1.3700831289231765     
         234           1   6.3023823930466119        1.9375901425017219        1.3700831289231765     
         235           1   7.3984488961851538        1.9375901425017219        1.3700831289231765     
         236           1   8.4945153993236939        1.9375901425017219        1.3700831289231765     
         237           1   9.5905819024622367        1.9375901425017219        1.3700831289231765     
         238           1   10.686648405600778        1.9375901425017219        1.3700831289231765     
         239           1   11.782714908739319        1.9375901425017219        1.3700831289231765     
         240           1   12.878781411877860        1.9375901425017219        1.3700831289231765     
         241           1  0.82204987735390600        3.4876622565030995        1.3700831289231765     
         242           1   1.9181163804924473        3.4876622565030995        1.3700831289231765     
         243           1   3.0141828836309883        3.4876622565030995        1.3700831289231765     
         244           1   4.1102493867695298        3.4876622565030995        1.3700831289231765     
         245           1   5.2063158899080708        3.4876622565030995        1.3700831289231765     
         246           1   6.3023823930466119        3.4876622565030995        1.3700831289231765     
         247           1   7.3984488961851538        3.4876622565030995        1.3700831289231765     
         248           1   8.4945153993236939        3.4876622565030995        1.3700831289231765     
         249           1   9.5905819024622367        3.4876622565030995        1.3700831289231765     
         250           1   10.686648405600778        3.4876622565030995        1.3700831289231765     
         251           1   11.782714908739319        3.4876622565030995        1.3700831289231765     
         252           1   12.878781411877860        3.4876622565030995        1.3700831289231765     
         253           1  0.82204987735390600        5.0377343705044773        1.3700831289231765     
         254           1   1.9181163804924473        5.0377343705044773        1.3700831289231765     
         255           1   3.0141828836309883        5.0377343705044773        1.3700831289231765     
         256           1   4.1102493867695298        5.0377343705044773        1.3700831289231765     
         257           1   5.2063158899080708        5.0377343705044773        1.3700831289231765     
         258           1   6.3023823930466119        5.0377343705044773        1.3700831289231765     
         259           1   7.3984488961851538        5.0377343705044773        1.3700831289231765     
         260           1   8.4945153993236939        5.0377343705044773        1.3700831289231765     
         261           1   9.5905819024622367        5.0377343705044773        1.3700831289231765     
         262           1   10.686648405600778        5.0377343705044773        1.3700831289231765     
         263           1   11.782714908739319        5.0377343705044773        1.3700831289231765     
         264           1   12.878781411877860        5.0377343705044773        1.3700831289231765     
         265           1  0.82204987735390600        6.5878064845058546        1.3700831289231765     
         266           1   1.9181163804924473        6.5878064845058546        1.3700831289231765     
         267           1   3.0141828836309883        6.5878064845058546        1.3700831289231765     
         268           1   4.1102493867695298        6.5878064845058546        1.3700831289231765     
         269           1   5.2063158899080708        6.5878064845058546        1.3700831289231765     
         270           1   6.3023823930466119        6.5878064845058546        1.3700831289231765     
         271           1   7.3984488961851538        6.5878064845058546        1.3700831289231765     
         272           1   8.4945153993236939        6.5878064845058546        1.3700831289231765     
         273           1   9.5905819024622367        6.5878064845058546        1.3700831289231765     
         274           1   10.686648405600778        6.5878064845058546        1.3700831289231765     
         275           1   11.782714908739319        6.5878064845058546        1.3700831289231765     
         276           1   12.878781411877860        6.5878064845058546        1.3700831289231765     
         277           1  0.82204987735390600        8.1378785985072319        1.3700831289231765     
         278           1   1.9181163804924473        8.1378785985072319        1.3700831289231765     
         279           1   3.0141828836309883        8.1378785985072319        1.3700831289231765     
         280           1   4.1102493867695298        8.1378785985072319        1.3700831289231765     
         281           1   5.2063158899080708        8.1378785985072319        1.3700831289231765     
         282           1   6.3023823930466119        8.1378785985072319        1.3700831289231765     
         283           1   7.3984488961851538        8.1378785985072319        1.3700831289231765     
         284           1   8.4945153993236939        8.1378785985072319        1.3700831289231765     
         285           1   9.5905819024622367        8.1378785985072319        1.3700831289231765     
         286           1   10.686648405600778        8.1378785985072319        1.3700831289231765     
         287           1   11.782714908739319        8.1378785985072319        1.3700831289231765     
         288           1   12.878781411877860        8.1378785985072319        1.3700831289231765     