 LAMMPS lj fcc 111 crystal

        4752 atoms
           1 atom types

   0.00000000       12.326572389769122      xlo xhi
   0.00000000       11.645590724866818      ylo yhi
   0.00000000       32.938704689905954      zlo zhi

 Atoms

           1           1  0.84044811748425841       0.48523294686945073       0.45748200958202723     
           2           1  0.28014937249475280        1.4556988406083522       0.45748200958202723     
           3           1   1.9610456074632696       0.48523294686945073       0.45748200958202723     
           4           1   1.4007468624737640        1.4556988406083522       0.45748200958202723     
           5           1   3.0816430974422806       0.48523294686945073       0.45748200958202723     
           6           1   2.5213443524527754        1.4556988406083522       0.45748200958202723     
           7           1   4.2022405874212918       0.48523294686945073       0.45748200958202723     
           8           1   3.6419418424317866        1.4556988406083522       0.45748200958202723     
           9           1   5.3228380774003030       0.48523294686945073       0.45748200958202723     
          10           1   4.7625393324107979        1.4556988406083522       0.45748200958202723     
          11           1   6.4434355673793142       0.48523294686945073       0.45748200958202723     
          12           1   5.8831368223898091        1.4556988406083522       0.45748200958202723     
          13           1   7.5640330573583254       0.48523294686945073       0.45748200958202723     
          14           1   7.0037343123688203        1.4556988406083522       0.45748200958202723     
          15           1   8.6846305473373366       0.48523294686945073       0.45748200958202723     
          16           1   8.1243318023478306        1.4556988406083522       0.45748200958202723     
          17           1   9.8052280373163487       0.48523294686945073       0.45748200958202723     
          18           1   9.2449292923268427        1.4556988406083522       0.45748200958202723     
          19           1   10.925825527295359       0.48523294686945073       0.45748200958202723     
          20           1   10.365526782305853        1.4556988406083522       0.45748200958202723     
          21           1   12.046423017274371       0.48523294686945073       0.45748200958202723     
          22           1   11.486124272284865        1.4556988406083522       0.45748200958202723     
          23           1  0.84044811748425841        2.4261647343472537       0.45748200958202723     
          24           1  0.28014937249475280        3.3966306280861551       0.45748200958202723     
          25           1   1.9610456074632696        2.4261647343472537       0.45748200958202723     
          26           1   1.4007468624737640        3.3966306280861551       0.45748200958202723     
          27           1   3.0816430974422806        2.4261647343472537       0.45748200958202723     
          28           1   2.5213443524527754        3.3966306280861551       0.45748200958202723     
          29           1   4.2022405874212918        2.4261647343472537       0.45748200958202723     
          30           1   3.6419418424317866        3.3966306280861551       0.45748200958202723     
          31           1   5.3228380774003030        2.4261647343472537       0.45748200958202723     
          32           1   4.7625393324107979        3.3966306280861551       0.45748200958202723     
          33           1   6.4434355673793142        2.4261647343472537       0.45748200958202723     
          34           1   5.8831368223898091        3.3966306280861551       0.45748200958202723     
          35           1   7.5640330573583254        2.4261647343472537       0.45748200958202723     
          36           1   7.0037343123688203        3.3966306280861551       0.45748200958202723     
          37           1   8.6846305473373366        2.4261647343472537       0.45748200958202723     
          38           1   8.1243318023478306        3.3966306280861551       0.45748200958202723     
          39           1   9.8052280373163487        2.4261647343472537       0.45748200958202723     
          40           1   9.2449292923268427        3.3966306280861551       0.45748200958202723     
          41           1   10.925825527295359        2.4261647343472537       0.45748200958202723     
          42           1   10.365526782305853        3.3966306280861551       0.45748200958202723     
          43           1   12.046423017274371        2.4261647343472537       0.45748200958202723     
          44           1   11.486124272284865        3.3966306280861551       0.45748200958202723     
          45           1  0.84044811748425841        4.3670965218250570       0.45748200958202723     
          46           1  0.28014937249475280        5.3375624155639585       0.45748200958202723     
          47           1   1.9610456074632696        4.3670965218250570       0.45748200958202723     
          48           1   1.4007468624737640        5.3375624155639585       0.45748200958202723     
          49           1   3.0816430974422806        4.3670965218250570       0.45748200958202723     
          50           1   2.5213443524527754        5.3375624155639585       0.45748200958202723     
          51           1   4.2022405874212918        4.3670965218250570       0.45748200958202723     
          52           1   3.6419418424317866        5.3375624155639585       0.45748200958202723     
          53           1   5.3228380774003030        4.3670965218250570       0.45748200958202723     
          54           1   4.7625393324107979        5.3375624155639585       0.45748200958202723     
          55           1   6.4434355673793142        4.3670965218250570       0.45748200958202723     
          56           1   5.8831368223898091        5.3375624155639585       0.45748200958202723     
          57           1   7.5640330573583254        4.3670965218250570       0.45748200958202723     
          58           1   7.0037343123688203        5.3375624155639585       0.45748200958202723     
          59           1   8.6846305473373366        4.3670965218250570       0.45748200958202723     
          60           1   8.1243318023478306        5.3375624155639585       0.45748200958202723     
          61           1   9.8052280373163487        4.3670965218250570       0.45748200958202723     
          62           1   9.2449292923268427        5.3375624155639585       0.45748200958202723     
          63           1   10.925825527295359        4.3670965218250570       0.45748200958202723     
          64           1   10.365526782305853        5.3375624155639585       0.45748200958202723     
          65           1   12.046423017274371        4.3670965218250570       0.45748200958202723     
          66           1   11.486124272284865        5.3375624155639585       0.45748200958202723     
          67           1  0.84044811748425841        6.3080283093028600       0.45748200958202723     
          68           1  0.28014937249475280        7.2784942030417614       0.45748200958202723     
          69           1   1.9610456074632696        6.3080283093028600       0.45748200958202723     
          70           1   1.4007468624737640        7.2784942030417614       0.45748200958202723     
          71           1   3.0816430974422806        6.3080283093028600       0.45748200958202723     
          72           1   2.5213443524527754        7.2784942030417614       0.45748200958202723     
          73           1   4.2022405874212918        6.3080283093028600       0.45748200958202723     
          74           1   3.6419418424317866        7.2784942030417614       0.45748200958202723     
          75           1   5.3228380774003030        6.3080283093028600       0.45748200958202723     
          76           1   4.7625393324107979        7.2784942030417614       0.45748200958202723     
          77           1   6.4434355673793142        6.3080283093028600       0.45748200958202723     
          78           1   5.8831368223898091        7.2784942030417614       0.45748200958202723     
          79           1   7.5640330573583254        6.3080283093028600       0.45748200958202723     
          80           1   7.0037343123688203        7.2784942030417614       0.45748200958202723     
          81           1   8.6846305473373366        6.3080283093028600       0.45748200958202723     
          82           1   8.1243318023478306        7.2784942030417614       0.45748200958202723     
          83           1   9.8052280373163487        6.3080283093028600       0.45748200958202723     
          84           1   9.2449292923268427        7.2784942030417614       0.45748200958202723     
          85           1   10.925825527295359        6.3080283093028600       0.45748200958202723     
          86           1   10.365526782305853        7.2784942030417614       0.45748200958202723     
          87           1   12.046423017274371        6.3080283093028600       0.45748200958202723     
          88           1   11.486124272284865        7.2784942030417614       0.45748200958202723     
          89           1  0.84044811748425841        8.2489600967806638       0.45748200958202723     
          90           1  0.28014937249475280        9.2194259905195644       0.45748200958202723     
          91           1   1.9610456074632696        8.2489600967806638       0.45748200958202723     
          92           1   1.4007468624737640        9.2194259905195644       0.45748200958202723     
          93           1   3.0816430974422806        8.2489600967806638       0.45748200958202723     
          94           1   2.5213443524527754        9.2194259905195644       0.45748200958202723     
          95           1   4.2022405874212918        8.2489600967806638       0.45748200958202723     
          96           1   3.6419418424317866        9.2194259905195644       0.45748200958202723     
          97           1   5.3228380774003030        8.2489600967806638       0.45748200958202723     
          98           1   4.7625393324107979        9.2194259905195644       0.45748200958202723     
          99           1   6.4434355673793142        8.2489600967806638       0.45748200958202723     
         100           1   5.8831368223898091        9.2194259905195644       0.45748200958202723     
         101           1   7.5640330573583254        8.2489600967806638       0.45748200958202723     
         102           1   7.0037343123688203        9.2194259905195644       0.45748200958202723     
         103           1   8.6846305473373366        8.2489600967806638       0.45748200958202723     
         104           1   8.1243318023478306        9.2194259905195644       0.45748200958202723     
         105           1   9.8052280373163487        8.2489600967806638       0.45748200958202723     
         106           1   9.2449292923268427        9.2194259905195644       0.45748200958202723     
         107           1   10.925825527295359        8.2489600967806638       0.45748200958202723     
         108           1   10.365526782305853        9.2194259905195644       0.45748200958202723     
         109           1   12.046423017274371        8.2489600967806638       0.45748200958202723     
         110           1   11.486124272284865        9.2194259905195644       0.45748200958202723     
         111           1  0.84044811748425841        10.189891884258467       0.45748200958202723     
         112           1  0.28014937249475280        11.160357777997367       0.45748200958202723     
         113           1   1.9610456074632696        10.189891884258467       0.45748200958202723     
         114           1   1.4007468624737640        11.160357777997367       0.45748200958202723     
         115           1   3.0816430974422806        10.189891884258467       0.45748200958202723     
         116           1   2.5213443524527754        11.160357777997367       0.45748200958202723     
         117           1   4.2022405874212918        10.189891884258467       0.45748200958202723     
         118           1   3.6419418424317866        11.160357777997367       0.45748200958202723     
         119           1   5.3228380774003030        10.189891884258467       0.45748200958202723     
         120           1   4.7625393324107979        11.160357777997367       0.45748200958202723     
         121           1   6.4434355673793142        10.189891884258467       0.45748200958202723     
         122           1   5.8831368223898091        11.160357777997367       0.45748200958202723     
         123           1   7.5640330573583254        10.189891884258467       0.45748200958202723     
         124           1   7.0037343123688203        11.160357777997367       0.45748200958202723     
         125           1   8.6846305473373366        10.189891884258467       0.45748200958202723     
         126           1   8.1243318023478306        11.160357777997367       0.45748200958202723     
         127           1   9.8052280373163487        10.189891884258467       0.45748200958202723     
         128           1   9.2449292923268427        11.160357777997367       0.45748200958202723     
         129           1   10.925825527295359        10.189891884258467       0.45748200958202723     
         130           1   10.365526782305853        11.160357777997367       0.45748200958202723     
         131           1   12.046423017274371        10.189891884258467       0.45748200958202723     
         132           1   11.486124272284865        11.160357777997367       0.45748200958202723     
         133           1  0.28014937249475280       0.80872157811575129        1.3724460287460816     
         134           1  0.84044811748425841        1.7791874718546528        1.3724460287460816     
         135           1   1.4007468624737640       0.80872157811575129        1.3724460287460816     
         136           1   1.9610456074632696        1.7791874718546528        1.3724460287460816     
         137           1   2.5213443524527754       0.80872157811575129        1.3724460287460816     
         138           1   3.0816430974422806        1.7791874718546528        1.3724460287460816     
         139           1   3.6419418424317866       0.80872157811575129        1.3724460287460816     
         140           1   4.2022405874212918        1.7791874718546528        1.3724460287460816     
         141           1   4.7625393324107979       0.80872157811575129        1.3724460287460816     
         142           1   5.3228380774003030        1.7791874718546528        1.3724460287460816     
         143           1   5.8831368223898091       0.80872157811575129        1.3724460287460816     
         144           1   6.4434355673793142        1.7791874718546528        1.3724460287460816     
         145           1   7.0037343123688203       0.80872157811575129        1.3724460287460816     
         146           1   7.5640330573583254        1.7791874718546528        1.3724460287460816     
         147           1   8.1243318023478306       0.80872157811575129        1.3724460287460816     
         148           1   8.6846305473373366        1.7791874718546528        1.3724460287460816     
         149           1   9.2449292923268427       0.80872157811575129        1.3724460287460816     
         150           1   9.8052280373163487        1.7791874718546528        1.3724460287460816     
         151           1   10.365526782305853       0.80872157811575129        1.3724460287460816     
         152           1   10.925825527295359        1.7791874718546528        1.3724460287460816     
         153           1   11.486124272284865       0.80872157811575129        1.3724460287460816     
         154           1   12.046423017274371        1.7791874718546528        1.3724460287460816     
         155           1  0.28014937249475280        2.7496533655935544        1.3724460287460816     
         156           1  0.84044811748425841        3.7201192593324559        1.3724460287460816     
         157           1   1.4007468624737640        2.7496533655935544        1.3724460287460816     
         158           1   1.9610456074632696        3.7201192593324559        1.3724460287460816     
         159           1   2.5213443524527754        2.7496533655935544        1.3724460287460816     
         160           1   3.0816430974422806        3.7201192593324559        1.3724460287460816     
         161           1   3.6419418424317866        2.7496533655935544        1.3724460287460816     
         162           1   4.2022405874212918        3.7201192593324559        1.3724460287460816     
         163           1   4.7625393324107979        2.7496533655935544        1.3724460287460816     
         164           1   5.3228380774003030        3.7201192593324559        1.3724460287460816     
         165           1   5.8831368223898091        2.7496533655935544        1.3724460287460816     
         166           1   6.4434355673793142        3.7201192593324559        1.3724460287460816     
         167           1   7.0037343123688203        2.7496533655935544        1.3724460287460816     
         168           1   7.5640330573583254        3.7201192593324559        1.3724460287460816     
         169           1   8.1243318023478306        2.7496533655935544        1.3724460287460816     
         170           1   8.6846305473373366        3.7201192593324559        1.3724460287460816     
         171           1   9.2449292923268427        2.7496533655935544        1.3724460287460816     
         172           1   9.8052280373163487        3.7201192593324559        1.3724460287460816     
         173           1   10.365526782305853        2.7496533655935544        1.3724460287460816     
         174           1   10.925825527295359        3.7201192593324559        1.3724460287460816     
         175           1   11.486124272284865        2.7496533655935544        1.3724460287460816     
         176           1   12.046423017274371        3.7201192593324559        1.3724460287460816     
         177           1  0.28014937249475280        4.6905851530713569        1.3724460287460816     
         178           1  0.84044811748425841        5.6610510468102593        1.3724460287460816     
         179           1   1.4007468624737640        4.6905851530713569        1.3724460287460816     
         180           1   1.9610456074632696        5.6610510468102593        1.3724460287460816     
         181           1   2.5213443524527754        4.6905851530713569        1.3724460287460816     
         182           1   3.0816430974422806        5.6610510468102593        1.3724460287460816     
         183           1   3.6419418424317866        4.6905851530713569        1.3724460287460816     
         184           1   4.2022405874212918        5.6610510468102593        1.3724460287460816     
         185           1   4.7625393324107979        4.6905851530713569        1.3724460287460816     
         186           1   5.3228380774003030        5.6610510468102593        1.3724460287460816     
         187           1   5.8831368223898091        4.6905851530713569        1.3724460287460816     
         188           1   6.4434355673793142        5.6610510468102593        1.3724460287460816     
         189           1   7.0037343123688203        4.6905851530713569        1.3724460287460816     
         190           1   7.5640330573583254        5.6610510468102593        1.3724460287460816     
         191           1   8.1243318023478306        4.6905851530713569        1.3724460287460816     
         192           1   8.6846305473373366        5.6610510468102593        1.3724460287460816     
         193           1   9.2449292923268427        4.6905851530713569        1.3724460287460816     
         194           1   9.8052280373163487        5.6610510468102593        1.3724460287460816     
         195           1   10.365526782305853        4.6905851530713569        1.3724460287460816     
         196           1   10.925825527295359        5.6610510468102593        1.3724460287460816     
         197           1   11.486124272284865        4.6905851530713569        1.3724460287460816     
         198           1   12.046423017274371        5.6610510468102593        1.3724460287460816     
         199           1  0.28014937249475280        6.6315169405491607        1.3724460287460816     
         200           1  0.84044811748425841        7.6019828342880622        1.3724460287460816     
         201           1   1.4007468624737640        6.6315169405491607        1.3724460287460816     
         202           1   1.9610456074632696        7.6019828342880622        1.3724460287460816     
         203           1   2.5213443524527754        6.6315169405491607        1.3724460287460816     
         204           1   3.0816430974422806        7.6019828342880622        1.3724460287460816     
         205           1   3.6419418424317866        6.6315169405491607        1.3724460287460816     
         206           1   4.2022405874212918        7.6019828342880622        1.3724460287460816     
         207           1   4.7625393324107979        6.6315169405491607        1.3724460287460816     
         208           1   5.3228380774003030        7.6019828342880622        1.3724460287460816     
         209           1   5.8831368223898091        6.6315169405491607        1.3724460287460816     
         210           1   6.4434355673793142        7.6019828342880622        1.3724460287460816     
         211           1   7.0037343123688203        6.6315169405491607        1.3724460287460816     
         212           1   7.5640330573583254        7.6019828342880622        1.3724460287460816     
         213           1   8.1243318023478306        6.6315169405491607        1.3724460287460816     
         214           1   8.6846305473373366        7.6019828342880622        1.3724460287460816     
         215           1   9.2449292923268427        6.6315169405491607        1.3724460287460816     
         216           1   9.8052280373163487        7.6019828342880622        1.3724460287460816     
         217           1   10.365526782305853        6.6315169405491607        1.3724460287460816     
         218           1   10.925825527295359        7.6019828342880622        1.3724460287460816     
         219           1   11.486124272284865        6.6315169405491607        1.3724460287460816     
         220           1   12.046423017274371        7.6019828342880622        1.3724460287460816     
         221           1  0.28014937249475280        8.5724487280269628        1.3724460287460816     
         222           1  0.84044811748425841        9.5429146217658651        1.3724460287460816     
         223           1   1.4007468624737640        8.5724487280269628        1.3724460287460816     
         224           1   1.9610456074632696        9.5429146217658651        1.3724460287460816     
         225           1   2.5213443524527754        8.5724487280269628        1.3724460287460816     
         226           1   3.0816430974422806        9.5429146217658651        1.3724460287460816     
         227           1   3.6419418424317866        8.5724487280269628        1.3724460287460816     
         228           1   4.2022405874212918        9.5429146217658651        1.3724460287460816     
         229           1   4.7625393324107979        8.5724487280269628        1.3724460287460816     
         230           1   5.3228380774003030        9.5429146217658651        1.3724460287460816     
         231           1   5.8831368223898091        8.5724487280269628        1.3724460287460816     
         232           1   6.4434355673793142        9.5429146217658651        1.3724460287460816     
         233           1   7.0037343123688203        8.5724487280269628        1.3724460287460816     
         234           1   7.5640330573583254        9.5429146217658651        1.3724460287460816     
         235           1   8.1243318023478306        8.5724487280269628        1.3724460287460816     
         236           1   8.6846305473373366        9.5429146217658651        1.3724460287460816     
         237           1   9.2449292923268427        8.5724487280269628        1.3724460287460816     
         238           1   9.8052280373163487        9.5429146217658651        1.3724460287460816     
         239           1   10.365526782305853        8.5724487280269628        1.3724460287460816     
         240           1   10.925825527295359        9.5429146217658651        1.3724460287460816     
         241           1   11.486124272284865        8.5724487280269628        1.3724460287460816     
         242           1   12.046423017274371        9.5429146217658651        1.3724460287460816     
         243           1  0.28014937249475280        10.513380515504766        1.3724460287460816     
         244           1  0.84044811748425841        11.483846409243668        1.3724460287460816     
         245           1   1.4007468624737640        10.513380515504766        1.3724460287460816     
         246           1   1.9610456074632696        11.483846409243668        1.3724460287460816     
         247           1   2.5213443524527754        10.513380515504766        1.3724460287460816     
         248           1   3.0816430974422806        11.483846409243668        1.3724460287460816     
         249           1   3.6419418424317866        10.513380515504766        1.3724460287460816     
         250           1   4.2022405874212918        11.483846409243668        1.3724460287460816     
         251           1   4.7625393324107979        10.513380515504766        1.3724460287460816     
         252           1   5.3228380774003030        11.483846409243668        1.3724460287460816     
         253           1   5.8831368223898091        10.513380515504766        1.3724460287460816     
         254           1   6.4434355673793142        11.483846409243668        1.3724460287460816     
         255           1   7.0037343123688203        10.513380515504766        1.3724460287460816     
         256           1   7.5640330573583254        11.483846409243668        1.3724460287460816     
         257           1   8.1243318023478306        10.513380515504766        1.3724460287460816     
         258           1   8.6846305473373366        11.483846409243668        1.3724460287460816     
         259           1   9.2449292923268427        10.513380515504766        1.3724460287460816     
         260           1   9.8052280373163487        11.483846409243668        1.3724460287460816     
         261           1   10.365526782305853        10.513380515504766        1.3724460287460816     
         262           1   10.925825527295359        11.483846409243668        1.3724460287460816     
         263           1   11.486124272284865        10.513380515504766        1.3724460287460816     
         264           1   12.046423017274371        11.483846409243668        1.3724460287460816     
         265           1  0.28014937249475280       0.16174431562315025        2.2874100479101362     
         266           1  0.84044811748425841        1.1322102093620519        2.2874100479101362     
         267           1   1.4007468624737640       0.16174431562315025        2.2874100479101362     
         268           1   1.9610456074632696        1.1322102093620519        2.2874100479101362     
         269           1   2.5213443524527754       0.16174431562315025        2.2874100479101362     
         270           1   3.0816430974422806        1.1322102093620519        2.2874100479101362     
         271           1   3.6419418424317866       0.16174431562315025        2.2874100479101362     
         272           1   4.2022405874212918        1.1322102093620519        2.2874100479101362     
         273           1   4.7625393324107979       0.16174431562315025        2.2874100479101362     
         274           1   5.3228380774003030        1.1322102093620519        2.2874100479101362     
         275           1   5.8831368223898091       0.16174431562315025        2.2874100479101362     
         276           1   6.4434355673793142        1.1322102093620519        2.2874100479101362     
         277           1   7.0037343123688203       0.16174431562315025        2.2874100479101362     
         278           1   7.5640330573583254        1.1322102093620519        2.2874100479101362     
         279           1   8.1243318023478306       0.16174431562315025        2.2874100479101362     
         280           1   8.6846305473373366        1.1322102093620519        2.2874100479101362     
         281           1   9.2449292923268427       0.16174431562315025        2.2874100479101362     
         282           1   9.8052280373163487        1.1322102093620519        2.2874100479101362     
         283           1   10.365526782305853       0.16174431562315025        2.2874100479101362     
         284           1   10.925825527295359        1.1322102093620519        2.2874100479101362     
         285           1   11.486124272284865       0.16174431562315025        2.2874100479101362     
         286           1   12.046423017274371        1.1322102093620519        2.2874100479101362     
         287           1  0.28014937249475280        2.1026761031009533        2.2874100479101362     
         288           1  0.84044811748425841        3.0731419968398548        2.2874100479101362     