 LAMMPS lj fcc 100 crystal

        6480 atoms
           1 atom types

   0.00000000       14.558565019215520      xlo xhi
   0.00000000       14.558565019215520      ylo yhi
   0.00000000       32.352366709367821      zlo zhi

 Atoms

           1           1  0.40440458386709777        1.2132137516012933       0.40440458386709777     
           2           1   1.2132137516012933       0.40440458386709777       0.40440458386709777     
           3           1   2.0220229193354888        1.2132137516012933       0.40440458386709777     
           4           1   2.8308320870696844       0.40440458386709777       0.40440458386709777     
           5           1   3.6396412548038799        1.2132137516012933       0.40440458386709777     
           6           1   4.4484504225380750       0.40440458386709777       0.40440458386709777     
           7           1   5.2572595902722714        1.2132137516012933       0.40440458386709777     
           8           1   6.0660687580064661       0.40440458386709777       0.40440458386709777     
           9           1   6.8748779257406625        1.2132137516012933       0.40440458386709777     
          10           1   7.6836870934748571       0.40440458386709777       0.40440458386709777     
          11           1   8.4924962612090535        1.2132137516012933       0.40440458386709777     
          12           1   9.3013054289432482       0.40440458386709777       0.40440458386709777     
          13           1   10.110114596677445        1.2132137516012933       0.40440458386709777     
          14           1   10.918923764411639       0.40440458386709777       0.40440458386709777     
          15           1   11.727732932145836        1.2132137516012933       0.40440458386709777     
          16           1   12.536542099880030       0.40440458386709777       0.40440458386709777     
          17           1   13.345351267614227        1.2132137516012933       0.40440458386709777     
          18           1   14.154160435348421       0.40440458386709777       0.40440458386709777     
          19           1  0.40440458386709777        2.8308320870696844       0.40440458386709777     
          20           1   1.2132137516012933        2.0220229193354888       0.40440458386709777     
          21           1   2.0220229193354888        2.8308320870696844       0.40440458386709777     
          22           1   2.8308320870696844        2.0220229193354888       0.40440458386709777     
          23           1   3.6396412548038799        2.8308320870696844       0.40440458386709777     
          24           1   4.4484504225380750        2.0220229193354888       0.40440458386709777     
          25           1   5.2572595902722714        2.8308320870696844       0.40440458386709777     
          26           1   6.0660687580064661        2.0220229193354888       0.40440458386709777     
          27           1   6.8748779257406625        2.8308320870696844       0.40440458386709777     
          28           1   7.6836870934748571        2.0220229193354888       0.40440458386709777     
          29           1   8.4924962612090535        2.8308320870696844       0.40440458386709777     
          30           1   9.3013054289432482        2.0220229193354888       0.40440458386709777     
          31           1   10.110114596677445        2.8308320870696844       0.40440458386709777     
          32           1   10.918923764411639        2.0220229193354888       0.40440458386709777     
          33           1   11.727732932145836        2.8308320870696844       0.40440458386709777     
          34           1   12.536542099880030        2.0220229193354888       0.40440458386709777     
          35           1   13.345351267614227        2.8308320870696844       0.40440458386709777     
          36           1   14.154160435348421        2.0220229193354888       0.40440458386709777     
          37           1  0.40440458386709777        4.4484504225380750       0.40440458386709777     
          38           1   1.2132137516012933        3.6396412548038799       0.40440458386709777     
          39           1   2.0220229193354888        4.4484504225380750       0.40440458386709777     
          40           1   2.8308320870696844        3.6396412548038799       0.40440458386709777     
          41           1   3.6396412548038799        4.4484504225380750       0.40440458386709777     
          42           1   4.4484504225380750        3.6396412548038799       0.40440458386709777     
          43           1   5.2572595902722714        4.4484504225380750       0.40440458386709777     
          44           1   6.0660687580064661        3.6396412548038799       0.40440458386709777     
          45           1   6.8748779257406625        4.4484504225380750       0.40440458386709777     
          46           1   7.6836870934748571        3.6396412548038799       0.40440458386709777     
          47           1   8.4924962612090535        4.4484504225380750       0.40440458386709777     
          48           1   9.3013054289432482        3.6396412548038799       0.40440458386709777     
          49           1   10.110114596677445        4.4484504225380750       0.40440458386709777     
          50           1   10.918923764411639        3.6396412548038799       0.40440458386709777     
          51           1   11.727732932145836        4.4484504225380750       0.40440458386709777     
          52           1   12.536542099880030        3.6396412548038799       0.40440458386709777     
          53           1   13.345351267614227        4.4484504225380750       0.40440458386709777     
          54           1   14.154160435348421        3.6396412548038799       0.40440458386709777     
          55           1  0.40440458386709777        6.0660687580064661       0.40440458386709777     
          56           1   1.2132137516012933        5.2572595902722714       0.40440458386709777     
          57           1   2.0220229193354888        6.0660687580064661       0.40440458386709777     
          58           1   2.8308320870696844        5.2572595902722714       0.40440458386709777     
          59           1   3.6396412548038799        6.0660687580064661       0.40440458386709777     
          60           1   4.4484504225380750        5.2572595902722714       0.40440458386709777     
          61           1   5.2572595902722714        6.0660687580064661       0.40440458386709777     
          62           1   6.0660687580064661        5.2572595902722714       0.40440458386709777     
          63           1   6.8748779257406625        6.0660687580064661       0.40440458386709777     
          64           1   7.6836870934748571        5.2572595902722714       0.40440458386709777     
          65           1   8.4924962612090535        6.0660687580064661       0.40440458386709777     
          66           1   9.3013054289432482        5.2572595902722714       0.40440458386709777     
          67           1   10.110114596677445        6.0660687580064661       0.40440458386709777     
          68           1   10.918923764411639        5.2572595902722714       0.40440458386709777     
          69           1   11.727732932145836        6.0660687580064661       0.40440458386709777     
          70           1   12.536542099880030        5.2572595902722714       0.40440458386709777     
          71           1   13.345351267614227        6.0660687580064661       0.40440458386709777     
          72           1   14.154160435348421        5.2572595902722714       0.40440458386709777     
          73           1  0.40440458386709777        7.6836870934748571       0.40440458386709777     
          74           1   1.2132137516012933        6.8748779257406625       0.40440458386709777     
          75           1   2.0220229193354888        7.6836870934748571       0.40440458386709777     
          76           1   2.8308320870696844        6.8748779257406625       0.40440458386709777     
          77           1   3.6396412548038799        7.6836870934748571       0.40440458386709777     
          78           1   4.4484504225380750        6.8748779257406625       0.40440458386709777     
          79           1   5.2572595902722714        7.6836870934748571       0.40440458386709777     
          80           1   6.0660687580064661        6.8748779257406625       0.40440458386709777     
          81           1   6.8748779257406625        7.6836870934748571       0.40440458386709777     
          82           1   7.6836870934748571        6.8748779257406625       0.40440458386709777     
          83           1   8.4924962612090535        7.6836870934748571       0.40440458386709777     
          84           1   9.3013054289432482        6.8748779257406625       0.40440458386709777     
          85           1   10.110114596677445        7.6836870934748571       0.40440458386709777     
          86           1   10.918923764411639        6.8748779257406625       0.40440458386709777     
          87           1   11.727732932145836        7.6836870934748571       0.40440458386709777     
          88           1   12.536542099880030        6.8748779257406625       0.40440458386709777     
          89           1   13.345351267614227        7.6836870934748571       0.40440458386709777     
          90           1   14.154160435348421        6.8748779257406625       0.40440458386709777     
          91           1  0.40440458386709777        9.3013054289432482       0.40440458386709777     
          92           1   1.2132137516012933        8.4924962612090535       0.40440458386709777     
          93           1   2.0220229193354888        9.3013054289432482       0.40440458386709777     
          94           1   2.8308320870696844        8.4924962612090535       0.40440458386709777     
          95           1   3.6396412548038799        9.3013054289432482       0.40440458386709777     
          96           1   4.4484504225380750        8.4924962612090535       0.40440458386709777     
          97           1   5.2572595902722714        9.3013054289432482       0.40440458386709777     
          98           1   6.0660687580064661        8.4924962612090535       0.40440458386709777     
          99           1   6.8748779257406625        9.3013054289432482       0.40440458386709777     
         100           1   7.6836870934748571        8.4924962612090535       0.40440458386709777     
         101           1   8.4924962612090535        9.3013054289432482       0.40440458386709777     
         102           1   9.3013054289432482        8.4924962612090535       0.40440458386709777     
         103           1   10.110114596677445        9.3013054289432482       0.40440458386709777     
         104           1   10.918923764411639        8.4924962612090535       0.40440458386709777     
         105           1   11.727732932145836        9.3013054289432482       0.40440458386709777     
         106           1   12.536542099880030        8.4924962612090535       0.40440458386709777     
         107           1   13.345351267614227        9.3013054289432482       0.40440458386709777     
         108           1   14.154160435348421        8.4924962612090535       0.40440458386709777     
         109           1  0.40440458386709777        10.918923764411639       0.40440458386709777     
         110           1   1.2132137516012933        10.110114596677445       0.40440458386709777     
         111           1   2.0220229193354888        10.918923764411639       0.40440458386709777     
         112           1   2.8308320870696844        10.110114596677445       0.40440458386709777     
         113           1   3.6396412548038799        10.918923764411639       0.40440458386709777     
         114           1   4.4484504225380750        10.110114596677445       0.40440458386709777     
         115           1   5.2572595902722714        10.918923764411639       0.40440458386709777     
         116           1   6.0660687580064661        10.110114596677445       0.40440458386709777     
         117           1   6.8748779257406625        10.918923764411639       0.40440458386709777     
         118           1   7.6836870934748571        10.110114596677445       0.40440458386709777     
         119           1   8.4924962612090535        10.918923764411639       0.40440458386709777     
         120           1   9.3013054289432482        10.110114596677445       0.40440458386709777     
         121           1   10.110114596677445        10.918923764411639       0.40440458386709777     
         122           1   10.918923764411639        10.110114596677445       0.40440458386709777     
         123           1   11.727732932145836        10.918923764411639       0.40440458386709777     
         124           1   12.536542099880030        10.110114596677445       0.40440458386709777     
         125           1   13.345351267614227        10.918923764411639       0.40440458386709777     
         126           1   14.154160435348421        10.110114596677445       0.40440458386709777     
         127           1  0.40440458386709777        12.536542099880030       0.40440458386709777     
         128           1   1.2132137516012933        11.727732932145836       0.40440458386709777     
         129           1   2.0220229193354888        12.536542099880030       0.40440458386709777     
         130           1   2.8308320870696844        11.727732932145836       0.40440458386709777     
         131           1   3.6396412548038799        12.536542099880030       0.40440458386709777     
         132           1   4.4484504225380750        11.727732932145836       0.40440458386709777     
         133           1   5.2572595902722714        12.536542099880030       0.40440458386709777     
         134           1   6.0660687580064661        11.727732932145836       0.40440458386709777     
         135           1   6.8748779257406625        12.536542099880030       0.40440458386709777     
         136           1   7.6836870934748571        11.727732932145836       0.40440458386709777     
         137           1   8.4924962612090535        12.536542099880030       0.40440458386709777     
         138           1   9.3013054289432482        11.727732932145836       0.40440458386709777     
         139           1   10.110114596677445        12.536542099880030       0.40440458386709777     
         140           1   10.918923764411639        11.727732932145836       0.40440458386709777     
         141           1   11.727732932145836        12.536542099880030       0.40440458386709777     
         142           1   12.536542099880030        11.727732932145836       0.40440458386709777     
         143           1   13.345351267614227        12.536542099880030       0.40440458386709777     
         144           1   14.154160435348421        11.727732932145836       0.40440458386709777     
         145           1  0.40440458386709777        14.154160435348421       0.40440458386709777     
         146           1   1.2132137516012933        13.345351267614227       0.40440458386709777     
         147           1   2.0220229193354888        14.154160435348421       0.40440458386709777     
         148           1   2.8308320870696844        13.345351267614227       0.40440458386709777     
         149           1   3.6396412548038799        14.154160435348421       0.40440458386709777     
         150           1   4.4484504225380750        13.345351267614227       0.40440458386709777     
         151           1   5.2572595902722714        14.154160435348421       0.40440458386709777     
         152           1   6.0660687580064661        13.345351267614227       0.40440458386709777     
         153           1   6.8748779257406625        14.154160435348421       0.40440458386709777     
         154           1   7.6836870934748571        13.345351267614227       0.40440458386709777     
         155           1   8.4924962612090535        14.154160435348421       0.40440458386709777     
         156           1   9.3013054289432482        13.345351267614227       0.40440458386709777     
         157           1   10.110114596677445        14.154160435348421       0.40440458386709777     
         158           1   10.918923764411639        13.345351267614227       0.40440458386709777     
         159           1   11.727732932145836        14.154160435348421       0.40440458386709777     
         160           1   12.536542099880030        13.345351267614227       0.40440458386709777     
         161           1   13.345351267614227        14.154160435348421       0.40440458386709777     
         162           1   14.154160435348421        13.345351267614227       0.40440458386709777     
         163           1  0.40440458386709777       0.40440458386709777        1.2132137516012933     
         164           1   1.2132137516012933        1.2132137516012933        1.2132137516012933     
         165           1   2.0220229193354888       0.40440458386709777        1.2132137516012933     
         166           1   2.8308320870696844        1.2132137516012933        1.2132137516012933     
         167           1   3.6396412548038799       0.40440458386709777        1.2132137516012933     
         168           1   4.4484504225380750        1.2132137516012933        1.2132137516012933     
         169           1   5.2572595902722714       0.40440458386709777        1.2132137516012933     
         170           1   6.0660687580064661        1.2132137516012933        1.2132137516012933     
         171           1   6.8748779257406625       0.40440458386709777        1.2132137516012933     
         172           1   7.6836870934748571        1.2132137516012933        1.2132137516012933     
         173           1   8.4924962612090535       0.40440458386709777        1.2132137516012933     
         174           1   9.3013054289432482        1.2132137516012933        1.2132137516012933     
         175           1   10.110114596677445       0.40440458386709777        1.2132137516012933     
         176           1   10.918923764411639        1.2132137516012933        1.2132137516012933     
         177           1   11.727732932145836       0.40440458386709777        1.2132137516012933     
         178           1   12.536542099880030        1.2132137516012933        1.2132137516012933     
         179           1   13.345351267614227       0.40440458386709777        1.2132137516012933     
         180           1   14.154160435348421        1.2132137516012933        1.2132137516012933     
         181           1  0.40440458386709777        2.0220229193354888        1.2132137516012933     
         182           1   1.2132137516012933        2.8308320870696844        1.2132137516012933     
         183           1   2.0220229193354888        2.0220229193354888        1.2132137516012933     
         184           1   2.8308320870696844        2.8308320870696844        1.2132137516012933     
         185           1   3.6396412548038799        2.0220229193354888        1.2132137516012933     
         186           1   4.4484504225380750        2.8308320870696844        1.2132137516012933     
         187           1   5.2572595902722714        2.0220229193354888        1.2132137516012933     
         188           1   6.0660687580064661        2.8308320870696844        1.2132137516012933     
         189           1   6.8748779257406625        2.0220229193354888        1.2132137516012933     
         190           1   7.6836870934748571        2.8308320870696844        1.2132137516012933     
         191           1   8.4924962612090535        2.0220229193354888        1.2132137516012933     
         192           1   9.3013054289432482        2.8308320870696844        1.2132137516012933     
         193           1   10.110114596677445        2.0220229193354888        1.2132137516012933     
         194           1   10.918923764411639        2.8308320870696844        1.2132137516012933     
         195           1   11.727732932145836        2.0220229193354888        1.2132137516012933     
         196           1   12.536542099880030        2.8308320870696844        1.2132137516012933     
         197           1   13.345351267614227        2.0220229193354888        1.2132137516012933     
         198           1   14.154160435348421        2.8308320870696844        1.2132137516012933     
         199           1  0.40440458386709777        3.6396412548038799        1.2132137516012933     
         200           1   1.2132137516012933        4.4484504225380750        1.2132137516012933     
         201           1   2.0220229193354888        3.6396412548038799        1.2132137516012933     
         202           1   2.8308320870696844        4.4484504225380750        1.2132137516012933     
         203           1   3.6396412548038799        3.6396412548038799        1.2132137516012933     
         204           1   4.4484504225380750        4.4484504225380750        1.2132137516012933     
         205           1   5.2572595902722714        3.6396412548038799        1.2132137516012933     
         206           1   6.0660687580064661        4.4484504225380750        1.2132137516012933     
         207           1   6.8748779257406625        3.6396412548038799        1.2132137516012933     
         208           1   7.6836870934748571        4.4484504225380750        1.2132137516012933     
         209           1   8.4924962612090535        3.6396412548038799        1.2132137516012933     
         210           1   9.3013054289432482        4.4484504225380750        1.2132137516012933     
         211           1   10.110114596677445        3.6396412548038799        1.2132137516012933     
         212           1   10.918923764411639        4.4484504225380750        1.2132137516012933     
         213           1   11.727732932145836        3.6396412548038799        1.2132137516012933     
         214           1   12.536542099880030        4.4484504225380750        1.2132137516012933     
         215           1   13.345351267614227        3.6396412548038799        1.2132137516012933     
         216           1   14.154160435348421        4.4484504225380750        1.2132137516012933     
         217           1  0.40440458386709777        5.2572595902722714        1.2132137516012933     
         218           1   1.2132137516012933        6.0660687580064661        1.2132137516012933     
         219           1   2.0220229193354888        5.2572595902722714        1.2132137516012933     
         220           1   2.8308320870696844        6.0660687580064661        1.2132137516012933     
         221           1   3.6396412548038799        5.2572595902722714        1.2132137516012933     
         222           1   4.4484504225380750        6.0660687580064661        1.2132137516012933     
         223           1   5.2572595902722714        5.2572595902722714        1.2132137516012933     
         224           1   6.0660687580064661        6.0660687580064661        1.2132137516012933     
         225           1   6.8748779257406625        5.2572595902722714        1.2132137516012933     
         226           1   7.6836870934748571        6.0660687580064661        1.2132137516012933     
         227           1   8.4924962612090535        5.2572595902722714        1.2132137516012933     
         228           1   9.3013054289432482        6.0660687580064661        1.2132137516012933     
         229           1   10.110114596677445        5.2572595902722714        1.2132137516012933     
         230           1   10.918923764411639        6.0660687580064661        1.2132137516012933     
         231           1   11.727732932145836        5.2572595902722714        1.2132137516012933     
         232           1   12.536542099880030        6.0660687580064661        1.2132137516012933     
         233           1   13.345351267614227        5.2572595902722714        1.2132137516012933     
         234           1   14.154160435348421        6.0660687580064661        1.2132137516012933     
         235           1  0.40440458386709777        6.8748779257406625        1.2132137516012933     
         236           1   1.2132137516012933        7.6836870934748571        1.2132137516012933     
         237           1   2.0220229193354888        6.8748779257406625        1.2132137516012933     
         238           1   2.8308320870696844        7.6836870934748571        1.2132137516012933     
         239           1   3.6396412548038799        6.8748779257406625        1.2132137516012933     
         240           1   4.4484504225380750        7.6836870934748571        1.2132137516012933     
         241           1   5.2572595902722714        6.8748779257406625        1.2132137516012933     
         242           1   6.0660687580064661        7.6836870934748571        1.2132137516012933     
         243           1   6.8748779257406625        6.8748779257406625        1.2132137516012933     
         244           1   7.6836870934748571        7.6836870934748571        1.2132137516012933     
         245           1   8.4924962612090535        6.8748779257406625        1.2132137516012933     
         246           1   9.3013054289432482        7.6836870934748571        1.2132137516012933     
         247           1   10.110114596677445        6.8748779257406625        1.2132137516012933     
         248           1   10.918923764411639        7.6836870934748571        1.2132137516012933     
         249           1   11.727732932145836        6.8748779257406625        1.2132137516012933     
         250           1   12.536542099880030        7.6836870934748571        1.2132137516012933     
         251           1   13.345351267614227        6.8748779257406625        1.2132137516012933     
         252           1   14.154160435348421        7.6836870934748571        1.2132137516012933     
         253           1  0.40440458386709777        8.4924962612090535        1.2132137516012933     
         254           1   1.2132137516012933        9.3013054289432482        1.2132137516012933     
         255           1   2.0220229193354888        8.4924962612090535        1.2132137516012933     
         256           1   2.8308320870696844        9.3013054289432482        1.2132137516012933     
         257           1   3.6396412548038799        8.4924962612090535        1.2132137516012933     
         258           1   4.4484504225380750        9.3013054289432482        1.2132137516012933     
         259           1   5.2572595902722714        8.4924962612090535        1.2132137516012933     
         260           1   6.0660687580064661        9.3013054289432482        1.2132137516012933     
         261           1   6.8748779257406625        8.4924962612090535        1.2132137516012933     
         262           1   7.6836870934748571        9.3013054289432482        1.2132137516012933     
         263           1   8.4924962612090535        8.4924962612090535        1.2132137516012933     
         264           1   9.3013054289432482        9.3013054289432482        1.2132137516012933     
         265           1   10.110114596677445        8.4924962612090535        1.2132137516012933     
         266           1   10.918923764411639        9.3013054289432482        1.2132137516012933     
         267           1   11.727732932145836        8.4924962612090535        1.2132137516012933     
         268           1   12.536542099880030        9.3013054289432482        1.2132137516012933     
         269           1   13.345351267614227        8.4924962612090535        1.2132137516012933     
         270           1   14.154160435348421        9.3013054289432482        1.2132137516012933     
         271           1  0.40440458386709777        10.110114596677445        1.2132137516012933     
         272           1   1.2132137516012933        10.918923764411639        1.2132137516012933     
         273           1   2.0220229193354888        10.110114596677445        1.2132137516012933     
         274           1   2.8308320870696844        10.918923764411639        1.2132137516012933     
         275           1   3.6396412548038799        10.110114596677445        1.2132137516012933     
         276           1   4.4484504225380750        10.918923764411639        1.2132137516012933     
         277           1   5.2572595902722714        10.110114596677445        1.2132137516012933     
         278           1   6.0660687580064661        10.918923764411639        1.2132137516012933     
         279           1   6.8748779257406625        10.110114596677445        1.2132137516012933     
         280           1   7.6836870934748571        10.918923764411639        1.2132137516012933     
         281           1   8.4924962612090535        10.110114596677445        1.2132137516012933     
         282           1   9.3013054289432482        10.918923764411639        1.2132137516012933     
         283           1   10.110114596677445        10.110114596677445        1.2132137516012933     
         284           1   10.918923764411639        10.918923764411639        1.2132137516012933     
         285           1   11.727732932145836        10.110114596677445        1.2132137516012933     
         286           1   12.536542099880030        10.918923764411639        1.2132137516012933     
         287           1   13.345351267614227        10.110114596677445        1.2132137516012933     
         288           1   14.154160435348421        10.918923764411639        1.2132137516012933     