LAMMPS data file via write_data, version 17 Nov 2016, timestep = 40000

5949 atoms
1 atom types

0.0000000000000000e+00 1.4262877514606096e+01 xlo xhi
0.0000000000000000e+00 1.4262877514606096e+01 ylo yhi
0.0000000000000000e+00 3.1695283365791322e+01 zlo zhi

Masses

1 1

Atoms # atomic

3201 1 1.3558229397992134e+00 4.0171085802644191e+00 4.8374027124237786e+00 1 0 0
3023 1 1.7224285877786734e+00 5.7981483497591126e+00 1.2710110358334266e+00 1 0 0
125 1 2.0441256875896754e-01 1.7645940136522256e+00 3.7653309338387713e+00 0 0 0
1858 1 2.8710884042763980e+00 3.0749782502130008e+00 5.3622279732131988e+00 0 1 0
257 1 1.3149448366816487e+00 4.6460142144007746e+00 3.1734890566534490e+00 0 0 0
59 1 3.8101885654721337e+00 4.3932415067363966e+00 1.7875038245175017e+00 0 0 0
4345 1 2.9427540264496104e+00 2.7700363911548362e+00 7.7396507973862161e-02 1 0 1
1615 1 6.8856016875659449e+00 4.1584787560857119e+00 5.5564489842979956e+00 0 1 0
2952 1 1.9220149930109690e-01 4.6052051094632374e-01 4.5704711040529222e-01 0 0 1
4905 1 6.9768005870955507e+00 2.5226614647236434e-01 6.2768161489928573e+00 1 1 0
89 1 6.0296336510994815e+00 1.9814506411581342e-01 5.9340302752337593e+00 0 0 0
179 1 4.9054830544970134e+00 4.7866492460702039e+00 5.4901536596704892e+00 0 0 0
1573 1 5.5934884300412833e+00 9.9993731802817543e-01 2.1604566715491038e+00 0 1 0
1885 1 2.1148420347348216e+00 4.0893627333912486e+00 6.3779218436988092e+00 0 1 0
337 1 1.3254050961404600e+00 1.1734882534699378e-01 4.1498726954798872e+00 0 0 0
1773 1 2.1839113033150177e+00 4.4292747803787256e+00 2.5907986638081755e+00 0 1 0
3226 1 6.5806574884435354e-01 4.3064681512638492e-01 2.4106645233806359e+00 1 0 0
196 1 2.7234857719432068e+00 6.3538743829932125e+00 6.2340584980437619e+00 0 0 0
4836 1 3.9766002580617528e+00 6.3427402860905175e+00 6.3248068565592170e+00 1 0 0
287 1 1.5578350926449680e+00 2.5387351919339767e+00 1.0309957905218663e+01 0 0 0
1490 1 4.8473618720014509e+00 4.0910857443697974e+00 3.5842013445666159e+00 0 0 1
315 1 6.7763548195435268e+00 3.1943541512615563e+00 4.6997716612530853e+00 0 0 0
3040 1 6.4901483443190404e+00 7.0313420948341285e+00 4.7095114159310274e+00 0 0 0
465 1 7.6730500193721229e-01 5.3884894565538870e+00 1.4948894692217385e+00 0 0 0
453 1 5.1068324289216402e+00 2.8283535227248207e+00 8.1902382423511888e+00 0 0 0
3051 1 7.0666346897141645e+00 1.9693926593280831e+00 1.8583125268606133e+00 1 0 0
3539 1 7.0901032767181835e+00 1.3228095871571957e+00 7.7648239452803942e+00 0 0 0
1432 1 6.9588422205291893e+00 4.0315419155430785e+00 3.8117522719904793e+00 0 0 1
1580 1 4.9258620398212223e+00 6.9880674030654122e+00 1.5332534904489925e-01 0 1 0
1775 1 5.2425963103268431e+00 1.7647113794844400e+00 7.7879875342518670e+00 0 1 0
396 1 4.1011566152947205e+00 6.9059106747414907e+00 5.4552044109242290e+00 0 0 0
4814 1 7.0639341016485790e+00 3.4043719573483067e+00 8.6749041640289963e+00 0 1 0
4554 1 6.6445850158713933e+00 6.4091693823404121e+00 8.7990712780728924e+00 0 1 0
538 1 3.7097509960993889e+00 3.7045987657631301e+00 9.4194531022998333e+00 0 0 0
4760 1 3.2446994174597465e+00 4.4396129900482979e+00 2.5905919029727849e+00 1 0 0
4413 1 3.7643024042520050e+00 5.4801621761561243e+00 6.3982404453722064e-01 1 0 1
1606 1 4.7492363226978123e+00 1.9147998926970302e+00 5.9472334723010416e+00 0 1 0
1922 1 4.6600712643902984e+00 5.2710327909686683e+00 1.0107308283485744e-01 0 0 0
451 1 3.0730260843882822e+00 3.5768953926229985e+00 6.3691176171541120e+00 0 0 0
4064 1 1.3416129068254568e+00 3.8733121536392203e+00 4.2474845401228867e-01 1 0 1
141 1 4.0039420329777684e+00 4.7935992173648527e+00 4.6709382374413240e+00 0 0 0
77 1 2.1122729817941988e+00 6.3155309174914764e+00 2.1646051280250833e+00 0 0 0
5905 1 6.0436156989155032e+00 2.3991263402668617e+00 7.4621075333727693e-01 0 1 1
44 1 7.4803930289205245e-01 5.9624555811258340e+00 3.2708424883626908e+00 0 0 0
1347 1 1.1795140139971743e+00 4.7589763710844251e+00 4.1567146995085524e+00 0 0 1
339 1 4.3995350960238433e+00 9.5862478565101095e-01 4.2457047319761032e-01 0 0 0
3657 1 1.9853868187464436e+00 6.3124180190634869e+00 8.4609686380315399e+00 1 0 0
2234 1 4.5810126783213851e+00 2.3837779598864114e-01 1.0387215001972613e+01 0 1 0
1657 1 4.8107825561601416e+00 6.5705358559884690e+00 4.3803137847045992e+00 0 0 0
1617 1 5.2163810305972849e+00 9.7902596371482731e-01 6.4605764059650213e+00 0 1 0
3262 1 8.4459708155627311e-01 1.7863470845909959e+00 1.5008528668306489e+00 1 0 0
313 1 6.2576276462612501e+00 5.6707058733282434e+00 5.4455068383482992e+00 0 0 0
460 1 2.6686184265356108e+00 1.4360130074469339e+00 9.2747716137276885e+00 0 0 0
1937 1 3.2641901622231315e+00 1.5445485535563295e+00 1.0022845745135003e+01 0 1 0
55 1 4.5466263326288034e+00 3.9112677350830278e+00 5.7177000725270828e+00 0 0 0
840 1 5.5218327851379430e+00 1.1753738421288842e+00 1.0440302584574475e+01 0 0 0
265 1 6.5139803641773879e+00 6.6398044203979358e+00 9.7872699790890429e+00 0 0 0
1389 1 5.4722568747584743e+00 5.2603245288082867e+00 4.6554001236662801e+00 0 0 1
4389 1 6.9353171211311464e+00 7.7131238198578467e-01 5.1647040608491821e+00 0 0 1
1975 1 3.6822640282952208e+00 1.7425783739505782e+00 5.5319214818989622e+00 0 1 0
1540 1 6.3624538588075454e+00 1.3693325445557072e+00 2.0001862402205786e-01 0 1 0
4437 1 3.9190507569394746e+00 1.9424725514902264e+00 2.2792581282019455e+00 0 0 1
1487 1 1.2228516792602551e+00 2.8065891686656448e+00 4.4180918697274034e+00 0 0 1
1950 1 2.5006581609326770e+00 1.4657951683866395e+00 7.7832121050934688e+00 0 1 0
4442 1 3.7783630826282311e-01 3.4184472623923816e+00 4.4580722413919310e-01 1 0 1
4684 1 6.3099638859104434e+00 6.6524932135020256e+00 5.5839640924758198e+00 0 0 0
4307 1 4.2690612559670216e+00 1.5366207886073260e+00 4.2251715229317428e+00 0 0 1
4464 1 6.3925123229224106e+00 4.3900776333822416e+00 3.9357453250211105e-01 0 0 1
193 1 5.9752110427935916e+00 3.3414476100262713e+00 1.6314937855639830e-01 0 0 0
3090 1 3.9970356369257881e-01 5.0401554997910969e+00 7.5167063644460050e+00 1 0 0
3319 1 8.7999862241624827e-01 2.7327235265393095e+00 1.1299088066345941e+00 1 0 0
1720 1 6.4665046798038892e+00 3.1499166194237587e+00 3.6443615969216050e+00 0 1 0
1431 1 4.5305837583310051e+00 2.3041797970040561e+00 5.2999203284179708e-01 0 0 1
2020 1 4.2068207927647814e+00 6.3614780308587593e-01 6.5471764803203527e+00 0 1 0
2299 1 5.3325978157573246e+00 3.6482018529093536e+00 7.2597396856301923e+00 0 0 0
3016 1 1.1732248235356439e+00 5.7464044585079526e+00 2.3451419418331936e+00 1 0 0
4573 1 5.3822071812231337e-02 6.9768106488387547e+00 1.3859530709723795e+00 1 0 0
3400 1 7.8129518723862568e-01 3.2683169862198764e+00 1.0089482070191501e+01 0 0 0
4750 1 1.9605838510800557e+00 2.4830391461174321e+00 5.3536898507259165e+00 1 1 0
261 1 6.0871618433066876e+00 3.6172683459909574e+00 7.9798915797829046e+00 0 0 0
494 1 5.0126197045619705e+00 4.3437825789714157e+00 4.5707024695226073e+00 0 0 0
1357 1 1.6744634214342493e+00 2.4278590972450501e-01 8.0108450311782953e-01 0 0 1
3305 1 5.6445536742860822e+00 3.7740684578893764e+00 3.0880115964427817e+00 1 0 0
5571 1 2.1060667924526003e-01 6.3428647085780829e+00 2.3895285375631548e+00 1 0 1
1434 1 2.7168247637886309e+00 6.3691227303715250e+00 2.3294864264787385e-02 0 0 1
1651 1 4.6640845442569292e+00 3.2865940719058240e+00 4.8879177667803937e+00 0 1 0
1939 1 6.5977634300536545e+00 4.3707522733651585e+00 8.7983459031383457e+00 0 0 0
338 1 2.2642216510855033e+00 4.5111857288426753e+00 3.6536443276870081e+00 0 0 0
1274 1 1.7665629163636805e+00 2.9967161442178250e+00 4.4292325196983701e-01 0 0 1
259 1 3.1909623512196461e+00 4.2090250893175050e+00 1.0148537239419857e+01 0 0 0
359 1 5.9421201025375181e+00 6.1056586280762719e+00 6.3805576661429377e+00 0 0 0
1125 1 5.3720551359824009e+00 1.6085761656202084e+00 3.9534350518387873e-01 0 0 1
4727 1 7.1302529853534483e-02 4.4504162833333796e+00 5.3542906298018444e-01 1 0 0
1526 1 6.0201908568535973e+00 7.0144620036299266e+00 2.7701054927321911e-01 0 0 0
4634 1 3.7854261643383662e+00 1.6963987657958374e-01 4.6525536855831418e-01 0 1 0
1758 1 6.3333864174428758e+00 1.8330506013175327e+00 7.3143388487418735e+00 0 1 0
1816 1 4.9937204359327687e+00 7.1455215626076074e-01 7.3843886823782841e+00 0 1 0
1703 1 1.2614483621216224e+00 5.5672988246974988e+00 4.8123253246573574e+00 0 1 0
99 1 5.8602434912387578e+00 5.6871994825386070e+00 9.7876511484637092e+00 0 0 0
249 1 5.6895001232227607e+00 4.0058091662825372e+00 1.0001964251134454e+00 0 0 0
3085 1 6.5270239728768367e+00 4.3715878328004107e+00 1.4748218475995238e+00 0 0 0
3592 1 5.1022505027229581e+00 2.1109343708376400e+00 8.9440285385433000e+00 0 0 0
2899 1 6.8358987438681951e-01 3.9942476768817046e+00 1.2728200179967584e+00 0 1 1
3502 1 1.5289510365261538e+00 4.3092767458338708e+00 8.7613334884522196e+00 0 0 0
3431 1 1.5827224405647350e-01 3.2158405171438615e+00 7.9609445647647590e+00 1 0 0
3000 1 3.2821972064674281e+00 1.7249123751090814e+00 3.9648424112803013e+00 1 0 0
1504 1 2.9226379703877003e+00 2.0037904941630580e+00 1.3270441916494742e+00 0 1 1
62 1 6.4074001029719234e+00 6.0412505846885898e+00 3.6873558581654486e+00 0 0 0
1403 1 4.5070422792533122e+00 1.0379994623151778e+00 2.1734821604365107e+00 0 0 1
1625 1 3.2526450854171673e+00 3.4569942057749317e+00 8.3702727883843462e+00 0 1 0
3455 1 2.7223242386653417e+00 4.1616205968916438e+00 9.0181764897947581e+00 1 0 0
1203 1 4.9844452275238176e+00 5.0044985376776330e+00 7.6128106493069119e+00 0 0 1
1284 1 5.4800705453509968e+00 2.1342126315245968e+00 5.2044430845452618e+00 0 0 1
69 1 7.8513964940306979e-01 5.4626832992836167e+00 6.2567656449170803e+00 0 0 0
170 1 6.3207101021672605e+00 2.8358966627769226e+00 7.0496033415713368e+00 0 0 0
221 1 2.9924953431380228e+00 5.0174447613276776e+00 5.1743153161643169e+00 0 0 0
3315 1 1.2878135146770928e+00 6.3788035641473240e+00 6.1881277667142900e+00 1 0 0
3032 1 1.5194077089819482e+00 1.7171833234860536e+00 2.8244226880860297e+00 1 0 0
3159 1 5.2630266604123610e-01 1.2537098015230865e+00 8.0538216124922268e+00 1 0 0
1803 1 1.8722733645730456e+00 6.3355791109333834e+00 7.0000086645117605e+00 0 0 0
40 1 3.7766947884681628e+00 6.3905930087313454e+00 1.5223217753184792e+00 0 0 0
3329 1 1.5159179959497400e+00 1.2698265507448800e+00 7.0159118236106570e+00 1 1 0
340 1 2.6007002795985366e+00 6.5471299033752373e-01 1.8992482821202787e+00 0 0 0
3195 1 1.5286212470499250e-01 1.7111116138634888e-01 6.4858799677838617e+00 1 0 0
1457 1 4.7005330435399193e+00 6.2353840045635600e+00 2.0161675389750293e+00 0 0 1
3138 1 2.5735684262657808e+00 5.4231991825571413e+00 2.1848232650375410e+00 1 0 0
406 1 2.0625302547378452e+00 6.2039018522145852e+00 4.5560434683238142e+00 0 0 0
95 1 4.9018305710676904e+00 3.6458718932185636e+00 1.9429344442421120e-01 0 0 0
626 1 4.3807452222463805e+00 6.3443281505282183e+00 1.0114759112211907e+01 0 0 0
3056 1 5.8639343154470165e+00 8.7695093570420823e-01 8.1774953624818885e+00 0 0 0
506 1 3.2412772464539130e+00 2.0058475612446869e+00 8.3069217728032978e+00 0 0 0
4533 1 4.4021307971052757e+00 1.5773849530911930e+00 7.0055613895245923e+00 0 1 0
5031 1 1.6631548133252956e+00 5.1996400919838937e-01 5.0055662954943783e+00 1 1 0
2277 1 2.8325341037157377e+00 7.3912111881831588e-01 1.0536473794328886e+01 0 1 0
1880 1 7.0171265452657972e+00 6.1168543933378903e+00 5.8627929245957544e+00 0 0 0
4986 1 6.7678952342349783e+00 1.2042531668475116e+00 8.7684924985136057e+00 0 1 0
208 1 1.4636475175152619e+00 9.3020621450398544e-01 1.7933975297524876e+00 0 0 0
1960 1 5.6134523239242196e+00 4.7662451592428008e+00 9.0817296525961009e+00 0 0 0
2158 1 2.2464070561889677e+00 3.2181818520713366e+00 8.7574680414945405e+00 0 0 0
5021 1 4.2240772684907855e+00 1.5051510198593385e+00 8.1720382057157668e+00 1 1 0
1471 1 2.7599179312492259e+00 3.5531330743470773e+00 2.3037221297381145e+00 0 0 1
369 1 3.8411913022835780e+00 3.1562233419367742e+00 5.1165261384192702e-02 0 0 0
4340 1 2.9130876898003161e-01 5.4218086625783890e+00 4.2504462925810635e+00 1 0 1
2190 1 4.2899303695466084e+00 2.3358191514168669e+00 9.6908278367671681e+00 0 1 0
685 1 4.9369829762890829e+00 8.2388789001769569e-01 8.4414633418675002e+00 0 0 0
4719 1 1.6475218149913979e+00 1.7329478423018019e+00 4.6828040696669362e+00 1 0 0
415 1 3.9271362898575499e+00 5.6997619136754079e+00 4.0353152983140115e+00 0 0 0
1572 1 6.2775546025128923e+00 1.4846383255411966e+00 4.6679697527858091e+00 0 1 0
3316 1 7.3276635662929113e-01 4.4252633431081252e+00 2.2328428231862119e+00 1 0 0
470 1 3.7453529577827033e-01 4.5391092025716295e+00 8.3841081768176835e+00 0 0 0
2067 1 2.3130959130370168e+00 2.8141683809693574e+00 6.3130683113926676e+00 0 1 0
391 1 2.6430001310617421e+00 3.3805122948348991e+00 9.8742439456733013e+00 0 0 0
4674 1 1.7427733460601658e-01 5.7669090127319800e+00 5.3597262885159624e+00 1 0 0
153 1 5.0141834959458622e+00 5.7602533068598536e+00 6.7435388943544465e+00 0 0 0
3615 1 4.7995101181418773e+00 6.0436564627900369e+00 9.2458120651497051e+00 0 0 0
458 1 8.3755370914143888e-03 5.8311682992482234e+00 6.8182250866711342e+00 0 0 0
5911 1 6.7569930856043170e+00 5.4109452621429748e+00 5.7188014785654129e-01 0 0 1
1917 1 7.7755518558741310e-01 1.0950844856836390e+00 4.5125648295949734e+00 0 1 0
140 1 4.2125726342521457e+00 4.2728103375248701e+00 2.7454142931617440e+00 0 0 0
1732 1 4.6313203406223891e-01 2.2853139280833683e+00 2.8994986059278967e+00 0 1 0
5779 1 4.0447964739040128e+00 1.7453937464567655e+00 1.1652903939543691e+00 0 1 1
214 1 2.8578611826729849e+00 5.0255187661941427e+00 6.2130533795505229e+00 0 0 0
368 1 6.5744836339418455e-01 3.3746248066858233e+00 8.8572943824450032e+00 0 0 0
4339 1 2.4010099314677675e+00 1.9578026153589325e+00 3.3966306545573870e+00 1 0 1
2712 1 5.9396453762458776e+00 4.4128368224175567e+00 2.4077631018559473e+00 0 0 1
4606 1 3.1401009085810077e+00 6.2631273945508408e+00 5.2349877742810786e+00 1 0 0
468 1 2.3774745982477259e+00 2.3750905529344264e+00 9.6811509123364416e+00 0 0 0
3234 1 5.0640766583687009e+00 5.9758661515982316e+00 3.5586783395156187e+00 1 0 0
2076 1 3.0476992313618658e+00 4.0569741037946176e+00 7.3697099702472668e+00 0 1 0
4653 1 3.4598125108469913e+00 1.2541425438581437e+00 1.7736789023083697e+00 0 1 0
3041 1 5.1006216716473904e+00 8.4973365513677612e-01 3.9339594570880601e+00 1 0 0
1466 1 6.7895755618053266e-01 3.5495700187258823e+00 3.1196545002240104e+00 0 0 1
2986 1 6.1003392619718690e+00 1.2450412704711435e+00 5.6356323173239318e+00 0 0 0
3199 1 4.4399441851923782e-01 6.8604270605136264e-01 1.4327067702422731e+00 1 0 0
1973 1 4.7312936692845531e+00 7.0990828303684665e+00 9.4154192104779870e+00 0 0 0
3039 1 2.8809193866733089e+00 5.6739317079657292e+00 1.0743186737093269e+00 1 0 0
1944 1 5.3532281920547433e+00 6.5686430988107798e+00 9.9912220764330488e+00 0 1 0
232 1 4.3241935376592409e+00 3.5409645204606237e+00 9.3592142458390748e-01 0 0 0
398 1 5.8606370668890220e+00 5.7150787050369178e+00 8.7776220889661474e+00 0 0 0
5091 1 3.7304937902158125e-01 5.1439162461438519e+00 1.0148894497857734e+01 1 0 0
4677 1 6.2115968691486572e+00 5.4588100163126647e+00 7.1779628239898221e+00 0 0 0
3142 1 1.4925283264876264e-02 1.1521784154728373e-01 9.1561734164442594e+00 1 0 0
1592 1 4.2274154934528640e+00 5.6057156350460096e+00 2.9057690230126654e+00 0 0 0
68 1 2.8224127054431238e+00 4.6373547037056699e+00 1.4960595662504472e+00 0 0 0
1843 1 1.9797400066435711e+00 7.9890478046740498e-01 9.8290354547387793e+00 0 1 0
428 1 1.1452901913331055e+00 4.5073659730747870e+00 6.7706943333477758e+00 0 0 0
2241 1 6.7356600927483488e+00 4.6394798725180912e+00 7.6384644536521966e+00 0 0 0
3373 1 3.6665527062048486e+00 6.9169890205718216e+00 4.5415270223106026e+00 1 0 0
1324 1 6.4941428348843475e+00 3.2830955052499107e+00 1.0798268342432658e+00 0 0 1
177 1 5.2578494215128240e+00 1.8356868164708016e+00 4.1552005968673589e+00 0 0 0
670 1 2.6077026556485623e+00 5.0545135034561750e-01 5.4420628806091740e+00 0 0 0
4291 1 2.6108017939829575e+00 3.6457589544631861e+00 5.5538808604226153e-01 1 0 1
1864 1 2.4729097349400142e+00 1.7827731496000456e+00 6.5831336693720663e+00 0 1 0
1342 1 2.7119607493862277e+00 4.9508680467053710e+00 1.7680445217005997e-01 0 0 1
317 1 3.1452205671197526e+00 2.5728736125983396e+00 2.0377575759986173e+00 0 0 0
229 1 4.3113893146932503e+00 2.4470374452000256e+00 7.7033210865049968e+00 0 0 0
1649 1 3.2189737023238227e+00 2.3515989747571129e+00 6.2991048024807519e+00 0 1 0
512 1 3.9407079593479621e+00 6.5524343109531491e-01 7.6756795803533473e+00 0 0 0
1430 1 3.0636152376984800e+00 1.5557185091497381e+00 2.7693349060077446e+00 0 0 1
138 1 5.8038080802155330e+00 6.2069242417262753e+00 4.4307131370416029e+00 0 0 0
4275 1 8.2035516161533906e-01 6.6878305231248927e+00 5.2947724186677600e+00 1 0 1
4943 1 1.7833095737739690e+00 1.0297037023023243e+00 3.7998956351344209e+00 1 1 0
730 1 6.5905229486738941e+00 3.8153675049231683e+00 6.8726273590080007e+00 0 0 0
4975 1 3.7800845104266876e+00 2.9376255203019258e-01 5.5649108682501192e+00 0 1 0
3087 1 7.6820078224346522e-01 3.1260275704083131e+00 5.3350386102305887e+00 1 0 0
1358 1 5.0012645837174219e+00 1.5954228075115537e+00 3.1307770905239907e+00 0 0 1
1452 1 4.9582034232779298e-01 4.0650506646521141e+00 4.1156624668990363e+00 0 0 1
640 1 1.1678440931507532e+00 5.6117434402170581e+00 7.1485499666586261e+00 0 0 0
377 1 5.2540632715148483e+00 8.8800326097544779e-01 1.2266420153652293e+00 0 0 0
1105 1 5.4706843974464245e+00 5.7679460149164150e+00 2.5298523943957063e+00 0 0 1
394 1 1.1018040273057974e+00 6.2848986517286223e+00 1.0191717241179017e+01 0 0 0
290 1 6.9140704257703922e-01 1.1158969973797244e+00 9.0297173599875968e+00 0 0 0
1934 1 4.1386035192505197e+00 3.4174138568147017e+00 3.3272687427673451e+00 0 1 0
2798 1 2.3359441206594673e+00 2.8230151051908625e+00 1.2851793121369166e+00 0 0 1
1475 1 1.3810649774584045e+00 2.7775407833965060e+00 3.2756388168020418e+00 0 0 1
3402 1 2.1684422179513749e+00 3.3978822794401187e+00 7.3997246836348145e+00 1 0 0
3419 1 1.2813439233599724e+00 6.9782695450637728e+00 7.8059935428579452e+00 1 0 0
184 1 6.8670898661496906e+00 6.8154891396558082e+00 2.9520338048235608e+00 0 0 0
235 1 2.3981235060479773e+00 4.1885258606637281e+00 5.3962923177580953e+00 0 0 0
1768 1 3.7236146403756645e+00 1.7091132042272497e+00 9.1619086467297794e+00 0 1 0
2126 1 6.4337500973314441e+00 4.5450181276755437e+00 9.8387234999108024e+00 0 0 0
3562 1 5.7750306526151407e+00 3.2663347906949771e+00 5.1306062828425709e+00 0 0 0
349 1 4.2060126716277830e+00 4.2535611904355450e+00 1.0451830338321408e+01 0 0 0
276 1 2.3244216294220710e+00 4.0643276245232931e+00 8.0958885598612849e+00 0 0 0
3013 1 1.4126846952350311e-01 5.7148781405672500e+00 6.9209501338828860e-01 1 0 0
430 1 4.4298524954181326e+00 6.6522970644732071e+00 8.4838989233117292e+00 0 0 0
3157 1 1.4914455339232555e-01 4.6259107035029317e+00 6.6033406002839783e+00 1 0 0
4938 1 6.9605496710893311e+00 6.0787517830194417e+00 4.6243922793525121e+00 0 0 0
3020 1 5.6765544510485526e+00 3.5087348457141037e+00 1.8883050541325979e+00 0 0 0
560 1 5.7477841423095299e-01 1.8462834504264225e+00 1.0258756856674053e+01 0 0 0
4915 1 1.6664641832213395e-01 6.4819418097931489e+00 6.0869721029828341e+00 1 0 0
550 1 5.8201481555741656e+00 3.0141684680943466e+00 9.9821414574623990e+00 -1 0 0
429 1 3.3614629015975184e+00 6.1890134546605102e-01 2.6614752276870952e+00 0 0 0
3602 1 5.7098332215767140e+00 8.6078057306157307e-01 9.2319491874719013e+00 0 0 0
1218 1 2.0451203728462497e+00 3.8648726485576055e+00 1.6805055667625319e+00 0 0 1
236 1 3.7280960730159030e+00 4.3444731993497001e+00 6.3536506993288633e+00 0 0 0
3257 1 2.5976759637316822e+00 7.0606940791512889e+00 4.6640987456674656e+00 1 0 0
4863 1 6.5723949291023311e+00 2.4384614736868020e+00 5.3194205796299920e+00 1 1 0
588 1 5.1454923439399423e+00 3.9770155284441593e+00 8.1732851505814867e+00 0 0 0
2894 1 5.2015982104855514e+00 1.9991897234030880e+00 1.3383870324042384e+00 0 1 1
694 1 2.9258387040550180e+00 7.1761655198948926e-01 7.1975730494525356e+00 0 0 0
3202 1 2.5565427510091903e+00 6.3293542106666809e+00 3.0234828871955206e+00 1 0 0
705 1 4.7756822337279541e+00 3.3746411098011442e+00 1.0159232257470560e+01 0 0 0
2105 1 2.6483591438967662e+00 4.5312800017915972e-01 9.0222733173528038e+00 0 1 0
1865 1 4.6258705573932204e+00 4.2411858010708210e+00 9.3927536358603572e+00 0 1 0
4910 1 6.6673741210813509e-01 2.3457076493511484e+00 7.3910820864018074e+00 1 1 0
1350 1 7.0470364443263103e+00 1.0571637143464712e+00 2.6320019716729379e+00 0 0 1
5067 1 8.3196931681245534e-01 4.4079954675365238e+00 9.5805256690860539e+00 0 1 0
652 1 2.4617256946614607e+00 1.1212799497632930e+00 4.5822527357761302e+00 0 0 0
1779 1 4.4735958038243293e+00 2.1173612017255725e+00 5.0045440614022860e+00 0 1 0
3068 1 4.3814511666277198e+00 2.8108079437427289e+00 1.6584626199028689e+00 0 0 0
1439 1 5.3937383693233540e+00 8.3044895243201766e-01 4.9314108487546955e+00 0 0 1
207 1 2.3376823476052104e+00 2.6361302881480544e+00 2.6701320621103779e+00 0 0 0
1674 1 9.2043136062258457e-01 4.9654503817016815e+00 4.0565296889280572e-01 0 0 0
1374 1 1.2138109024018873e+00 1.8770639794898150e+00 3.8140065895210697e+00 0 0 1
1866 1 5.4119229373531139e+00 6.5334089214821223e+00 7.0730042930338275e+00 0 0 0
2021 1 4.4635201731686163e+00 1.1588253901507723e+00 5.2559619941388824e+00 0 1 0
187 1 5.5471006967448480e+00 4.9147102256178217e+00 1.6100035159172728e+00 0 0 0
4575 1 3.8145147879798730e-01 1.3682404758238806e+00 6.0651644463758225e-01 1 1 0
322 1 6.1048148639609723e+00 5.3696258622648019e-01 4.0582935297186804e+00 0 0 0
1368 1 5.2671625951418442e+00 2.9859693666347527e+00 1.0800138446338867e+00 0 0 1
4536 1 4.1437384327289006e+00 2.5808088855122775e+00 4.0421519584284873e+00 0 1 0
2261 1 1.0678518552695302e+00 8.4352347057603516e-01 1.0112492548296871e+01 0 1 0
264 1 3.6279237842491394e+00 2.6790517824682625e+00 9.1978506664657733e-01 0 0 0
4657 1 1.6799295656110769e+00 2.0809413261904051e+00 1.1171028481099041e+00 1 1 0
1949 1 5.8234235638475011e+00 9.1515562977761922e-01 3.1836217436629255e+00 0 1 0
327 1 4.4002957375226774e+00 5.2863130220686783e+00 8.6872840938018125e+00 0 0 0
5033 1 2.1329824486405857e+00 6.1150496133666410e+00 1.0397853402382459e+01 0 0 0
4521 1 5.6181042143815434e+00 5.0195702509493652e+00 5.3273268339649504e-01 1 0 0
5 1 4.4556587815303423e+00 2.5332671965303049e+00 3.0048396752835753e+00 0 0 0
1946 1 6.6931442427426457e+00 4.9789500019767940e+00 4.2156658055244662e+00 0 1 0
70 1 1.0515556722845731e+00 6.5067456793625027e+00 1.4214685591273142e+00 0 0 0
4860 1 6.6846014519478389e+00 2.6415978872607733e+00 2.6415441059019775e+00 0 1 0
274 1 6.0538218898631291e+00 4.4881404751422682e+00 5.1075960308849222e+00 0 0 0
1410 1 3.2532197929685838e+00 2.7678625213942607e+00 3.0978220842674196e+00 0 0 1
5811 1 6.5605525461958498e+00 3.7050949041339454e+00 2.7520114980400119e+00 0 1 1
463 1 6.0146083626578566e+00 1.7765131361057052e+00 8.4993751883751081e+00 0 0 0
295 1 4.6459733008779924e+00 4.6446832528969573e+00 6.6104128037084582e+00 0 0 0
3489 1 3.3090572998955854e+00 1.7182636524170973e+00 7.2397938882952380e+00 0 0 0
146 1 1.4996967432765365e+00 6.6160716168989877e+00 4.4838454606863637e-01 0 0 0
5030 1 3.1171778087597737e+00 3.0713966103336467e+00 4.1383177650731513e+00 0 1 0
1810 1 4.3290525078045539e+00 3.5244195780642955e+00 7.9211453323348433e+00 0 1 0
1983 1 6.0110861550140253e+00 5.5577001476488952e-01 7.0201932567467553e+00 0 1 0
328 1 2.1983264716155529e-01 5.3167017680248563e+00 2.5287410286610177e+00 0 0 0
230 1 3.2114471422837378e+00 6.6069475483655502e+00 7.1497044239824552e+00 0 0 0
3215 1 1.1950512723606077e+00 2.4392770586267152e+00 6.2760836643304687e+00 1 0 0
1320 1 2.3364127595657400e-01 1.4537353779874107e+00 2.3140831461849189e+00 0 0 1
422 1 3.1688886366230093e+00 4.9846430791564629e+00 7.8696554959655565e+00 0 0 0
472 1 5.0678316977475717e+00 4.7580701689778682e+00 2.7276424626816262e+00 0 0 0
3005 1 4.5552823334784440e+00 5.1951860912265984e+00 1.8290539361946203e+00 0 0 0
289 1 4.5666732817547251e+00 1.5030984061013458e-01 4.7786083279008862e+00 0 0 0
4991 1 2.4694782967383211e+00 6.9669684034343780e+00 7.6429904661636465e+00 1 0 0
233 1 6.8465878038062193e+00 3.5791191832764309e+00 9.6897146381250305e+00 0 0 0
2096 1 4.7023529543293581e+00 1.2878369139724735e+00 9.5848672970790361e+00 0 1 0
1863 1 2.8373535660083391e+00 5.3419649896815766e+00 9.8819738464607294e+00 0 1 0
378 1 6.8784048800575972e+00 5.4318300663914512e+00 9.0391846101146580e+00 0 0 0
335 1 1.6445659464607603e+00 9.0899995672332989e-01 8.7511976314174422e+00 0 0 0
2072 1 3.1359054450620771e+00 9.6912509350565246e-01 8.3785045056923249e+00 0 1 0
2413 1 5.5266607000018872e+00 4.2582451762849560e+00 1.0187260781403600e+01 0 0 0
654 1 3.8658989267384608e-01 1.2380933072040254e+00 6.8854248086388230e+00 0 0 0
382 1 1.0470191870804018e+00 5.8548229072168834e+00 8.1648396821359803e+00 0 0 0
3179 1 3.5379569978571204e+00 4.3731300462553975e+00 4.9217885082442042e-01 0 0 0
3237 1 2.6869094459212959e+00 5.6294885149100926e+00 7.0883937692088290e+00 1 0 0
1868 1 3.0528634163903137e+00 7.7088138589127619e-01 3.6378141433582161e+00 0 1 0
31 1 2.1273443934831908e+00 3.2682137822366291e+00 4.6614909092991414e+00 0 0 0
3258 1 5.8004148012625327e+00 4.7998799538611623e+00 8.0576576776707807e+00 1 0 0
1688 1 4.0199845620751455e+00 6.6140160134790280e+00 3.6454590484470266e+00 0 0 0
1714 1 3.0311461247513320e+00 5.2459074145904374e+00 8.8247523945748121e+00 0 0 0
309 1 3.7221228625893645e+00 4.4187106499142619e+00 8.5729230861379246e+00 0 0 0
3586 1 6.5304853163917906e+00 1.0238684697811966e+00 1.0059063938784835e+01 0 0 0
22 1 2.6052681816050911e+00 1.7022631522987615e+00 5.4234111571340149e+00 0 0 0
1920 1 4.8898947059489872e+00 4.2494127666988346e+00 1.8392032924284492e+00 0 0 0
4423 1 4.6750637132229365e+00 5.8550915447549663e+00 9.5024972694755072e-01 0 0 1
220 1 1.7929666350438143e+00 6.8835171722961235e+00 5.5193346948737059e+00 1 0 0
4771 1 5.3266127798612939e-01 1.5201222708796092e-01 4.9684544299834243e+00 1 1 0
103 1 5.6279055081545319e+00 2.6068041247967821e+00 3.1662727608767129e+00 0 0 0
43 1 1.5084716271405219e-01 2.4923843076251333e+00 1.9090564730699904e+00 0 0 0
318 1 1.5849850030029951e+00 3.6946046269961932e+00 3.7827519332785124e+00 0 0 0
50 1 4.2883253285793019e+00 5.4883813460105531e+00 6.0584389056514434e+00 0 0 0
2018 1 4.0165694145681305e+00 7.9209373570173558e-01 8.9277802664200419e+00 0 1 0
2730 1 6.7367856021597694e+00 7.2446579400595312e-01 1.6043034699908996e+00 0 1 1
4710 1 7.7034496390297147e-01 2.0973147719015817e+00 5.3159755305388323e+00 1 1 0
1763 1 1.3257239496000188e+00 5.5197493810114551e-01 6.2515266580678004e+00 0 1 0
63 1 4.8483643807100876e+00 3.3922199612050719e+00 2.5047674721305855e+00 0 0 0
4163 1 3.3563112629209824e-01 4.8930889843918486e+00 3.4606639050035755e+00 1 0 1
408 1 5.8291588087073395e-02 6.0905004504943063e+00 9.7905222263109177e+00 0 0 0
1152 1 4.2303345191485233e+00 5.8001085076162928e+00 5.0985001727423276e+00 0 0 1
1678 1 3.7037748330081017e+00 7.1456055788176509e-01 9.9032123056638675e+00 0 1 0
151 1 4.7162748831219723e+00 5.0198054436326123e+00 3.9299066379920018e+00 0 0 0
5221 1 9.9341789663916380e-02 4.4430176693753581e-01 1.0386619325585203e+01 1 1 0
2029 1 3.2623506986281599e+00 2.7229835847662689e+00 9.3280705020699770e+00 0 1 0
5940 1 2.7775708241189573e-01 3.0053055098682671e+00 3.8347616737162356e+00 1 1 1
576 1 3.7993827358276295e+00 4.4872344103729560e+00 3.5767723352636853e+00 0 0 0
2933 1 6.4741866533410573e+00 2.2283571383675471e-01 5.5606304337005708e-01 0 1 1
112 1 2.4747137971905224e+00 2.2899864048032486e+00 4.3969061418143651e+00 0 0 0
4574 1 7.0293855040255551e+00 5.0326425772880965e+00 5.1456806333338712e+00 0 1 0
5286 1 6.5737834283684462e+00 5.6327486389327772e+00 8.0692291753926391e+00 0 0 0
1496 1 3.3128522304039429e+00 6.9172186796948996e+00 6.5152861991536770e-01 0 0 1
1777 1 2.9386422223508211e+00 3.8749884176306568e+00 3.3695542230633326e+00 0 1 0
4787 1 1.4127580254462788e+00 5.2398444307228065e+00 9.8080641690486736e+00 1 0 0
13 1 2.4030538287752239e+00 1.2832354346019276e-01 4.2164794959129157e+00 0 0 0
1741 1 1.7027342808577595e+00 3.4427339699142427e+00 5.6142587323690591e+00 0 1 0
1847 1 1.9503582717599810e+00 5.4529462142855243e+00 6.4074134410911290e+00 0 0 0
1355 1 6.4370628872654989e-01 8.6742779052096897e-01 3.4004469573652525e+00 0 0 1
1862 1 1.2119182762845355e+00 3.4901024248100310e+00 6.6368248380611714e+00 0 1 0
1268 1 2.8290684793352532e+00 2.7349401883023328e-01 2.1352850544230167e-01 0 0 1
3283 1 3.4459089561300673e+00 6.5618490457435863e+00 2.6851454050779746e+00 1 0 0
3166 1 4.1944027202829623e+00 6.6727886766857818e+00 7.3358565333748533e+00 0 0 0
2057 1 1.8032005324535954e+00 5.4766168903936245e+00 3.6585476430658885e+00 0 0 0
4609 1 5.0979384370660394e+00 5.9924350529048711e+00 7.9375275678960158e+00 1 0 0
14 1 6.1972490157552258e+00 1.8034915250688510e+00 3.6249337579225913e+00 0 0 0
2990 1 1.0400091688532758e+00 6.4712059771126880e+00 4.1927022796166273e+00 1 0 0
4682 1 1.4683214203674950e+00 4.9161368614156888e+00 5.5607356725108428e+00 1 0 0
215 1 3.5378735411085502e+00 5.4219004873277719e+00 1.8862564663385466e+00 0 0 0
4386 1 1.7068660066691599e+00 3.4753129169542882e+00 2.6192324973803247e+00 1 0 1
1782 1 5.0989460818508094e+00 2.9655058771152831e-01 2.9078215543983257e+00 0 1 0
5087 1 1.9805897209215164e+00 5.2048913283286726e+00 8.9261519384119108e+00 0 1 0
1805 1 6.6511634401599800e+00 4.9915490608495441e+00 6.2393872935741888e+00 0 0 0
1884 1 3.8099800126046595e+00 5.4765180298708103e+00 6.8991283504975831e+00 0 0 0
174 1 3.4959081518670971e+00 3.8962853840906448e+00 5.1342930155476356e+00 0 0 0
1705 1 5.5278799458107910e+00 5.8842926007200935e+00 1.4499912185821286e+00 0 0 0
360 1 4.9562130487609748e+00 3.0817025756704188e+00 3.9647222126081387e+00 0 0 0
4465 1 6.3718010251287733e+00 5.5005489334558444e+00 2.7076475150654109e+00 0 0 1
404 1 2.2626878065836054e+00 4.7336959997205970e+00 7.2625809482317090e+00 0 0 0