LAMMPS data file via write_data, version 17 Nov 2016, timestep = 40000

4135 atoms
1 atom types

0.0000000000000000e+00 1.2582117838195341e+01 xlo xhi
0.0000000000000000e+00 1.1887018561403465e+01 ylo yhi
0.0000000000000000e+00 3.3621565731434998e+01 zlo zhi

Masses

1 1

Atoms # atomic

2168 1 7.8108118638488178e-01 4.0023370570787291e+00 7.9031543889169642e+00 1 0 0
3056 1 1.2158546323907915e+00 3.9740232595092015e+00 2.6928373920806776e+00 0 0 1
3619 1 2.8092237399894531e+00 2.9542591329436813e-01 1.0979232896618290e+01 1 1 0
330 1 1.9801724854147851e+00 7.8349920548628837e-01 9.3150150661759454e+00 0 0 0
1250 1 4.2511137157574872e+00 1.6907393853091193e+00 3.0950539388238218e+00 0 1 0
278 1 5.9724425231864930e-01 2.9568970369733344e-01 6.0498734533419629e+00 0 0 0
2152 1 1.0314683740411366e+00 4.1434691193521527e+00 6.2735993506414243e+00 1 0 0
168 1 3.2217823187122998e+00 3.4390558443678270e+00 6.0688530949663759e+00 0 0 0
3204 1 1.4352575066090294e+00 1.1947866452443172e+00 5.9725293672427000e+00 0 1 0
2338 1 1.8161975308182695e-02 1.2793288626679660e+00 5.5426301785349121e+00 1 0 0
1317 1 3.9905913586279618e+00 9.9388703668346368e-01 7.4339996288793539e+00 0 1 0
1217 1 5.8954606580867823e+00 3.5818338660211779e-01 2.8744797937431090e+00 0 1 0
2333 1 4.7986331830881213e+00 2.3490368910148929e+00 8.2111975121089369e+00 1 0 0
1381 1 4.5166794184006767e+00 5.8718701309167267e+00 1.1196078622496405e+01 0 0 0
2484 1 7.3827874441257924e-01 3.9328582710847217e+00 9.9790332561838717e+00 1 0 0
3168 1 2.3453556158377786e+00 2.7822725738991343e+00 5.8813151942761035e+00 1 1 0
2079 1 7.3157057852871110e-01 5.3906467401040314e-01 7.4795997644658030e+00 1 0 0
3498 1 1.9156520406713309e+00 1.5871116794366689e+00 3.2024675734386969e+00 1 1 0
1979 1 1.1173871015592158e+00 3.1461123358265497e+00 9.3916265204450422e-01 0 1 1
1190 1 1.8296086778560303e-02 2.3689543319372746e+00 2.4422586289884913e+00 0 1 0
1287 1 1.1995021550807683e+00 2.1412564878082692e+00 2.9016320858181861e+00 1 1 0
220 1 5.5933476958272212e+00 2.6354429396064569e+00 1.0259256350745911e+01 0 0 0
1208 1 2.6897691945778317e+00 2.5375847588082334e+00 4.7698768180240601e+00 0 1 0
2102 1 4.9763028469653507e+00 5.2977585718526869e+00 1.0970165412050724e-01 0 0 0
3419 1 5.2415095802141414e+00 5.6780675584953224e+00 5.7854812259886028e+00 0 0 0
2396 1 4.0579885522473766e+00 2.1449394786851252e+00 1.0647503752660839e+01 1 0 0
2350 1 5.6130544363183086e+00 1.1182373721261707e+00 8.8676439586681077e+00 1 1 0
982 1 7.4375591580235309e-02 1.6489892077688855e+00 3.2663850923102160e+00 0 0 1
1239 1 1.9385471151380675e+00 2.0947693456506973e+00 6.7582105106724528e+00 0 1 0
3654 1 5.3069222535229530e+00 3.1474626991659775e+00 9.3922297834969992e+00 1 1 0
1052 1 3.4915388952976603e+00 5.6203712036270836e+00 1.0984751788945069e+00 0 0 0
110 1 3.8611394306692888e+00 5.8425262895372470e+00 9.8927366038305884e+00 0 0 0
1392 1 2.9889506251337146e+00 3.5149046598052522e+00 8.2457949281183804e+00 0 1 0
155 1 3.5993445693018100e+00 3.3351798095085585e+00 4.7811149828061303e+00 0 0 0
3209 1 6.8832591260556064e-01 3.5119553630275084e+00 9.0346634647189887e+00 1 1 0
2106 1 4.9855519203893781e+00 6.9889153774752277e-01 1.0383905618470866e+00 0 0 0
189 1 4.9479133097785644e-01 4.5718797457872009e+00 5.3140081398608228e+00 0 0 0
2023 1 3.9564639358847611e+00 6.9270400942491983e-01 7.1083789912971496e-01 0 1 1
1363 1 5.6019719545467996e+00 9.7694470976662895e-02 7.3250728710545392e+00 0 1 0
2243 1 2.8898809312735135e-01 4.3583734734236295e+00 6.9956171239249221e+00 1 -1 0
1031 1 6.9100314026232412e-01 2.1937065698715403e+00 5.4048713194968201e-01 0 0 1
228 1 3.5950350911736821e+00 1.0211124705714951e+00 5.6581109420546447e+00 0 0 0
162 1 2.1233370957687541e+00 1.1981115128346578e+00 1.1136035245850330e+01 0 0 0
2412 1 4.1603454840774443e+00 2.7883525163863303e+00 8.8965091943469634e+00 1 0 0
146 1 1.8136862872970905e+00 5.0841309966684367e+00 6.4144059401367484e+00 0 0 0
215 1 5.7949321106543099e+00 2.1972621303934385e+00 7.0221244520858734e+00 0 0 0
374 1 6.1910889202175730e+00 5.1394427070764772e+00 8.3131310717925739e+00 0 0 0
3158 1 5.6655923050394108e+00 5.1595238979931146e+00 1.7629912360008071e+00 0 0 0
2366 1 1.9024495787096307e+00 2.7133798847070905e+00 3.7589990798828525e+00 1 1 0
2208 1 4.4140075418603164e+00 5.4298633833317949e+00 3.5425182736260683e+00 0 0 0
4077 1 2.4796466261040631e+00 4.0921565862096703e+00 3.3464250150577022e+00 1 1 1
2349 1 1.4228709000176558e+00 1.8547201137877076e+00 9.3685233049489707e+00 1 0 0
574 1 4.6149388256614543e+00 2.7167542944702534e-02 9.9061753199683729e+00 0 0 0
1127 1 3.2140393069427828e+00 1.5770705866314472e+00 1.9336136434365025e+00 0 1 0
3439 1 6.1033614032532899e+00 1.6380557604198518e+00 9.9466580705325018e+00 0 1 0
18 1 5.1058256300397167e+00 4.8341593208182481e+00 2.5498888987003294e+00 0 0 0
3187 1 6.1322741687671023e+00 5.7040160327279317e+00 9.1855795823912303e-02 0 0 0
2234 1 7.5552569456370755e-01 3.3348555279716643e+00 6.7918675269708748e+00 1 0 0
2262 1 5.8372979148546156e+00 2.0057034633292807e+00 8.1555809085123645e+00 0 0 0
2118 1 1.8936575503884108e+00 5.9183687479212370e+00 3.6092877624469675e+00 0 0 0
1973 1 3.7532695818557689e+00 3.7312103620331634e+00 2.4592744422814250e+00 0 0 1
1191 1 2.4867846266430815e+00 1.9762611971265880e+00 8.9137569027608308e+00 0 1 0
3468 1 4.4434878590048550e+00 4.7227448520826716e+00 8.3860392984440359e+00 1 0 0
1401 1 4.0206597663033861e-01 1.6170132841706071e+00 8.5974467600965827e+00 0 1 0
2009 1 5.1750879677738144e+00 1.7569014730404999e+00 2.5116404370249508e+00 0 1 1
1244 1 2.6064749699382173e+00 3.6633765143159254e+00 5.1940907683619697e+00 0 1 0
302 1 3.1463672380239651e+00 5.7426281636820038e+00 6.1172251121225960e+00 0 0 0
825 1 5.6878710468564471e+00 3.5474984103317824e+00 2.3260430777819066e+00 0 0 1
3310 1 1.5065122074093473e+00 4.5561661703507328e+00 3.6757870045284675e+00 1 0 0
3672 1 4.8786882870120909e+00 7.6797029322394472e-01 6.8444203733028495e+00 0 1 0
3308 1 1.4595294182395997e+00 1.2351976666357389e+00 1.0298956950603335e+01 1 0 0
1434 1 5.6016486774982868e+00 1.1009333710004028e+00 7.5764329638792454e+00 0 1 0
112 1 3.7114536151882813e+00 3.5880015897087514e+00 3.6676732667537140e+00 0 0 0
1188 1 5.0413582428440078e+00 1.6444317397304660e+00 6.2100605374312385e+00 0 1 0
934 1 1.0843847345418842e+00 5.4061171466151716e+00 2.8385019037654029e+00 0 0 1
70 1 1.0767706784751088e+00 8.3087058724273233e-01 8.4251919439145677e+00 0 0 0
1877 1 4.2367432254092900e+00 5.4110646025336058e+00 2.5184045961699657e+00 0 0 1
170 1 4.6221474768468154e+00 3.4050558239824213e-01 5.9168440004192915e+00 0 1 0
2095 1 1.8528650365024435e+00 5.1084870252451813e+00 4.3298668718997718e-01 0 0 0
83 1 5.1603065441685319e+00 7.7537879169585955e-01 3.4359231017742147e+00 0 0 0
1282 1 1.9818237724246863e+00 6.3078008822123166e-01 8.1344419547785911e+00 0 1 0
186 1 1.7410390680774017e+00 1.9955493559546251e+00 4.7220372793259520e+00 0 0 0
1225 1 5.1601276768729432e-01 5.6735330508667232e+00 1.7110396600752955e+00 0 0 0
3212 1 4.2149185787108188e+00 4.4119033162887922e+00 4.1338752506625669e+00 1 1 0
2441 1 1.0377049012970267e+00 2.0014257491565135e+00 5.5053042661642779e+00 1 0 0
147 1 2.3533846203701199e+00 5.1452581451659372e+00 4.2318311351264182e+00 0 0 0
2194 1 3.0405448802103336e+00 1.5522017985976311e+00 7.8922469390581984e+00 1 0 0
2112 1 1.9698050264748173e+00 2.7249513822314091e+00 8.3791100318877145e+00 1 0 0
2193 1 3.7334417701242435e+00 2.6335637795932887e+00 2.1900132768306388e+00 0 0 0
5 1 5.4949005742087245e+00 4.8415875036345435e+00 4.6862379422896989e+00 0 0 0
361 1 1.7587382918725907e+00 4.4030842117859326e+00 9.9054972828778922e+00 0 0 0
2101 1 3.7977880417685963e+00 3.6320611143762607e+00 4.4561571518928739e-01 1 0 0
3101 1 3.5233270837559290e+00 4.2260725927155871e+00 5.5002436243156305e+00 0 0 1
2007 1 1.2994276478140299e+00 2.5517028607490505e-01 1.9763482829996422e+00 0 1 1
2057 1 2.4679475980603356e+00 4.8759439288748938e+00 1.4899112718556704e+00 0 1 1
55 1 4.1678454453443026e+00 1.0161232049553885e+00 4.1271584163147637e+00 0 1 0
2464 1 3.3510395335981045e+00 2.0756723363000140e+00 9.4979983864768869e+00 1 0 0
3349 1 4.5578590764495743e+00 4.9003642919859232e+00 9.4202917927419563e+00 1 0 0
1276 1 1.4124804787532923e+00 3.0103211456330161e+00 1.9404295256341000e+00 1 1 0
3318 1 1.3874776681247249e+00 3.2759484168786979e+00 5.7444700642421322e+00 1 0 0
3311 1 5.6217080102220169e+00 4.6722557353776430e+00 7.7254123768195659e-01 1 1 0
311 1 2.7792048952219939e+00 4.9750464956735474e+00 5.1476794129958527e+00 0 0 0
3292 1 4.5164850728161732e-02 4.4416238855596091e-01 8.2150201257259816e+00 1 1 0
4043 1 5.9740529398117612e+00 2.5011212548080669e-02 3.4918257308644990e-01 0 1 1
2190 1 1.6430942265121280e+00 4.4448550264230446e+00 5.5151491120106053e+00 1 0 0
1256 1 1.3321821877803949e-01 3.5824287707039910e+00 4.3640301576233211e+00 0 0 0
3647 1 5.0851115950662642e+00 1.9843464976598832e+00 1.0903459301937543e+01 0 0 0
2368 1 8.1451476806288559e-01 5.0994387556347229e+00 1.0071214651416854e+01 1 0 0
62 1 3.7216142615426340e+00 2.3953032454683796e+00 5.5726455261649983e+00 0 0 0
837 1 1.1956404219626751e+00 1.9397832291333423e+00 3.8253123130903046e+00 0 0 1
356 1 4.5155185085321987e+00 5.8788013028650443e+00 8.9273814939139182e+00 0 0 0
3194 1 2.5469367200569417e+00 4.3073012927779262e+00 6.0477691201405719e+00 1 0 0
2199 1 4.8296440455471803e+00 2.4998291738276643e+00 1.2701393075115568e+00 0 0 0
1975 1 5.4992608601499260e+00 1.2362922193372670e+00 3.7481702950836421e-01 0 1 1
1082 1 4.3887991573098590e+00 2.8022950163294604e+00 3.2345767951238851e+00 0 1 0
3378 1 3.9771621109365562e+00 5.5869739740405207e+00 8.0458308375242105e+00 0 0 0
791 1 6.2770648189456688e+00 1.3233984630272153e+00 3.1598324613667033e+00 0 0 1
2291 1 5.5638431219409989e+00 4.5251232767298681e+00 5.6979971817243129e+00 0 0 0
1212 1 5.1330015889407301e+00 4.5532023395102272e-01 4.6069733667231372e+00 0 1 0
1364 1 1.6262536828864145e+00 2.5602085608004595e-02 1.0333415531068397e+01 0 1 0
2341 1 5.3515735976614494e+00 4.3148291111230712e+00 8.9972027335103437e+00 0 0 0
1174 1 5.7267053368745984e+00 2.0363134770559408e+00 3.4881031004388419e+00 0 1 0
2415 1 2.7472176488364464e+00 4.2485932221163250e+00 9.0736622745656632e+00 0 0 0
6 1 3.9022132762133399e+00 4.5570770523096158e+00 3.0688058036010655e+00 0 0 0
1440 1 5.5289590022310406e+00 3.6173258306356768e+00 1.0596307636096759e+01 0 1 0
1263 1 5.6782867501717238e-01 1.5993567342160544e+00 7.5647356644529280e+00 0 1 0
2297 1 4.5569804057318448e+00 1.8382082607895660e+00 3.7919147320813407e-01 1 0 0
2150 1 4.7620237022229857e+00 3.9062332112576783e+00 3.2152019420707165e+00 0 0 0
257 1 9.3879182443018039e-01 1.2084253120515478e+00 2.2990204316143759e+00 0 1 0
2423 1 3.8927208225976195e+00 5.1448256758416946e+00 5.2842572084597368e+00 0 0 0
2650 1 2.9795924868699055e+00 2.3933082998011130e+00 1.0657366002196884e+01 1 0 0
953 1 1.1593235198444234e+00 4.2351628135194694e+00 1.2068001686746785e+00 0 0 1
1328 1 5.4661698471701330e+00 5.0658496303907388e+00 6.6589445921147776e+00 0 0 0
2263 1 1.0784770288149077e+00 4.9883915783754782e+00 8.1711846809224937e+00 1 0 0
1177 1 3.7166853643911244e+00 6.0670714211406918e-01 1.0062213961107798e+01 0 1 0
335 1 4.2846644222975065e+00 3.3914370732670571e+00 5.6224471324198628e+00 0 0 0
3277 1 3.5050947126164735e+00 2.4437127477888558e+00 3.8994068603829293e+00 1 1 0
138 1 3.8667474961732395e+00 2.1543971839151794e+00 7.6779681347389621e+00 0 0 0
2017 1 5.4856932792559707e+00 3.0063904686853733e+00 3.4465243487948558e+00 0 1 1
4105 1 9.2693577937057470e-01 2.2423378719423237e+00 6.5470373995279001e+00 1 0 1
223 1 4.2087692382798840e+00 3.4139645236032283e+00 7.8921969501843163e+00 0 0 0
1116 1 1.9128431936532966e+00 5.7073071469237924e+00 5.5922566081384533e+00 0 0 0
221 1 1.9964428415594426e+00 4.0195257712968822e+00 1.9759797177400844e+00 0 0 0
2249 1 3.1541775757276764e+00 1.1129769902118811e+00 9.2371113657809296e+00 1 0 0
2137 1 2.9046678403422899e-01 4.7749348027247587e+00 4.2517568232570886e+00 1 0 0
2182 1 3.7576746652329689e+00 4.6083851695071463e+00 1.7008726494417707e+00 0 0 0
2161 1 1.2083617406357774e+00 2.5836964782330099e+00 7.4897064496602459e+00 1 0 0
1085 1 9.6698280034889200e-02 1.7954983819232537e+00 4.4604191403180868e+00 0 1 0
2280 1 5.8683123557688708e+00 9.7812971468789200e-01 6.4859048296817692e+00 1 0 0
2351 1 1.9767788288180581e+00 1.7598187088435682e+00 7.8964491493506683e+00 1 0 0
2258 1 5.5877931202919739e-01 5.6298827876541653e+00 9.0336299344987552e+00 1 0 0
2045 1 3.0205664727950965e+00 1.3707873942625086e+00 3.7203612778436317e+00 0 1 1
3401 1 4.0553777228791992e+00 1.4858044781056849e+00 6.4955374340085674e+00 0 1 0
974 1 3.1577415665812270e+00 4.3157609583897969e+00 4.3660566968462629e+00 0 0 1
2053 1 5.5895875250012157e+00 3.5817604501133080e+00 3.2979647536334100e-01 0 1 1
3436 1 6.0972514139227094e+00 1.2397905564300336e+00 2.0901130008406952e+00 0 1 0
91 1 4.7595979810850153e+00 4.1223310435573532e+00 5.7746568643759222e-01 0 0 0
42 1 7.2862942077630199e-01 5.3462295433194456e+00 7.1508117421516904e+00 0 0 0
2367 1 4.3822701346149218e-01 4.4525749242485597e+00 3.2521900991019312e+00 1 0 0
2865 1 4.8754004373534592e+00 2.7792304937200516e+00 2.3097320971628874e+00 1 0 1
108 1 2.6043153730704192e+00 3.7674097037420801e-01 3.4777612462320762e+00 1 0 0
3384 1 4.7053512105237791e+00 1.0704970456421679e+00 8.2614948661466538e+00 1 0 0
346 1 3.5859157885424038e+00 1.6050925413479831e+00 4.8047656568223962e+00 0 0 0
3257 1 2.7739259736583564e+00 3.2105486272056267e+00 3.9916034601471662e+00 1 1 0
342 1 6.1391042273006269e+00 2.5068632121675440e+00 9.2417619341209960e+00 -1 0 0
2143 1 3.3973581140602707e+00 2.7227195449509578e-01 4.1702548783551867e+00 1 0 0
1427 1 2.7079394722282935e+00 4.9727608902531362e+00 9.9513342026490719e+00 0 1 0
3410 1 1.6219483420156797e-01 5.7043198889471833e+00 1.0971155046327763e+01 1 1 0
1121 1 4.0610249910944534e+00 4.8658217557451504e+00 4.2026846955007535e-01 0 0 0
1959 1 1.8190299082656292e+00 1.2859046670365224e+00 1.7162113626704212e+00 0 1 1
409 1 5.4661089091799573e+00 3.9357743617716454e+00 6.7200769044346451e+00 0 0 0
2247 1 2.1197097900421569e+00 1.0296256521565823e+00 4.0455619194406669e+00 1 0 0
157 1 1.3846609553630120e+00 4.5486327600675933e+00 1.0944789679156166e+01 0 0 0
3525 1 5.0291546206270148e+00 1.6783747143794214e-02 1.0998651849687807e+01 0 1 0
3330 1 2.5077919973258105e+00 5.2484702108344718e+00 7.9640242500357088e+00 0 0 0
2387 1 1.4980919345352026e-01 2.9299202842652434e+00 1.0627849663278766e+01 1 0 0
2302 1 2.8621719185049312e+00 3.4231727515776500e-01 7.5479615740909525e+00 1 0 0
2295 1 4.9174575277114458e+00 5.9245020858547122e+00 1.0101697342257067e+01 1 0 0
1252 1 1.8558810436706181e+00 2.2891721011826531e+00 1.0828101663754666e+01 0 0 0
2145 1 1.9337772271836049e+00 5.0568658082007936e+00 8.9565209619511972e+00 1 0 0
3342 1 3.5413150201742569e+00 4.2644212128885792e+00 1.0034222399221678e+01 1 1 0
394 1 3.5001070540030690e+00 4.9982889832584112e+00 1.0756519522221806e+01 0 0 0
37 1 2.4664823375629372e+00 3.8881988973701048e-01 6.2490900630600539e+00 0 0 0
2813 1 7.2458189424208119e-01 1.0368047341713909e+00 1.2594654914705046e+00 1 0 1
1124 1 2.6590610109761856e+00 4.9921478579896412e+00 6.9289514489351429e+00 0 1 0
3293 1 5.5248631051170505e-01 3.4791799343943741e-01 4.9871996031113008e+00 1 1 0
2271 1 4.5170011958123304e+00 1.3057003113076062e+00 5.1940972234478844e+00 1 0 0
329 1 8.4919913362073343e-02 4.7903809322017992e+00 7.9439442682312658e+00 0 0 0
2218 1 6.0843261400073985e+00 3.3691626485822841e+00 7.2876998561735746e+00 0 0 0
345 1 4.2805589820835470e+00 3.8198606470781722e+00 6.5213080376903125e+00 0 0 0
1260 1 4.2665324626979277e+00 2.6536500684635236e+00 6.5339035851412435e+00 0 0 0
3061 1 2.6985939372175660e+00 3.1565893877041731e+00 2.0719594382567204e+00 0 0 1
67 1 3.1691971666003314e+00 3.0391397815320986e+00 2.9500861736323913e+00 0 0 0
3360 1 3.0680665806182947e+00 9.2949785811694530e-01 2.7011716844375431e+00 0 1 0
1303 1 4.7970040663481708e+00 1.8008127830856782e+00 7.2281438449101874e+00 0 1 0
2335 1 2.8403799146413511e+00 3.9887647840499936e+00 7.1166009188890245e+00 1 0 0
1128 1 6.2661515124608229e+00 4.1631428622707861e-01 8.3743809068478043e+00 0 1 0
239 1 1.6816378954969893e+00 3.3810185339504297e+00 9.3568281264837392e+00 0 0 0
3508 1 1.1516846929021343e+00 2.6798036832550003e+00 1.0048342741909089e+01 1 0 0
3325 1 2.9582447947609718e+00 1.0877224110663253e+00 6.7758799271028689e+00 0 1 0
3412 1 1.6840906309964143e+00 4.0681373389257818e+00 8.6217474751460674e+00 1 0 0
1102 1 5.2656203198640208e+00 1.4516107176633704e+00 4.2753865054191262e+00 0 1 0
2236 1 9.3438643354406092e-01 5.4144120988064737e+00 5.8855623207317365e+00 1 0 0
385 1 4.5641835110485713e+00 4.0924987667687214e+00 1.0319872841930742e+01 -1 0 0
1772 1 4.8939018259516089e+00 4.8329281233577301e+00 1.1164116159359970e+01 0 0 0
204 1 1.9523970952056082e+00 3.2609143057492602e+00 2.8167778181010559e+00 0 0 0
2064 1 3.5812972621898851e+00 5.2830138845549293e+00 4.1777035475314541e+00 0 0 1
71 1 5.1606411911889660e-01 3.6508617828584113e+00 1.8668154190340769e+00 1 0 0
1109 1 3.6036111010418280e-02 4.0535380379238628e+00 9.3047620933815556e-01 0 1 0
199 1 1.2822398043153769e+00 2.1715519739153843e-01 3.9326719184041621e+00 0 0 0
3333 1 3.5305833683623806e+00 1.5257135228009227e+00 3.3590419594110310e-01 1 1 0
203 1 2.2505782050607057e+00 7.2472716005908189e-01 5.1164973273737173e+00 0 0 0
2312 1 9.0929695637702324e-01 2.0992793495622339e+00 1.6343796396582515e+00 1 0 0
1231 1 3.0593755008425587e+00 3.9776913456678051e+00 1.4239039469819237e+00 0 0 0
1213 1 6.6071196345517103e-01 3.0690306071475750e+00 2.6831805444180779e+00 0 1 0
369 1 8.8995743750085399e-01 4.5808882904137764e+00 9.0799515651932730e+00 0 0 0
3352 1 6.2473357550849435e+00 5.6456162193160591e+00 9.8986483040631299e+00 0 0 0
218 1 3.3648249463806748e+00 4.4562682908597147e+00 7.9436176061634898e+00 0 0 0
2376 1 1.6063569070477006e+00 1.1689835894160265e+00 7.1373562821647392e+00 1 0 0
2769 1 4.5529975631343866e+00 4.4171189877814987e+00 5.1157248200832441e+00 1 0 1
1385 1 4.6047779689432362e+00 1.4843511677003325e+00 9.9658821229887469e+00 0 1 0
2371 1 2.4401501841158448e+00 1.4808710573129116e+00 5.9649754405027524e+00 0 0 0
3361 1 5.1267837841936732e+00 5.6359729069228646e+00 8.1239576105027016e+00 0 0 0
3520 1 4.5777266389680547e+00 5.7927617066153889e+00 6.6851124625293883e+00 1 0 0
254 1 1.2839819608255558e+00 1.0227929821297714e+00 4.9131038683984345e+00 0 0 0
2530 1 5.4080613996175897e+00 8.2125114624889684e-01 9.8822498628761331e+00 0 0 0
3524 1 3.7515480663639060e+00 3.1523889635996074e+00 1.0904046805808305e+01 1 1 0
3181 1 2.0121346504289463e+00 4.7973894207283507e+00 2.6863493879713833e+00 0 0 0
985 1 6.0192087289489815e-01 5.1551751482453492e+00 6.3749109511538082e-01 0 0 1
281 1 6.1931436806680287e+00 1.9271974689870146e+00 1.1047306425713826e+01 0 0 0
3536 1 2.1329915818632657e+00 2.4830654211766174e+00 9.8911937913238734e+00 0 0 0
2405 1 6.2769233303833438e+00 3.5639442601645897e+00 8.9910205969320121e+00 0 0 0
1230 1 1.9981457188224101e+00 3.5979606520652720e+00 6.6610783347067812e+00 0 1 0
264 1 6.1323109561131703e+00 2.3604408653808155e+00 2.4130068890105809e+00 0 0 0
235 1 2.0431561857022795e+00 4.0898328974530536e+00 4.3796984367440501e+00 0 0 0
3167 1 4.5722192705865927e+00 3.0283835219412114e+00 2.8643695138764663e-01 1 1 0
995 1 4.1710171242539076e+00 1.3817718441977129e+00 1.4933207516101672e+00 0 0 1
2346 1 9.4532482865346690e-01 6.5307852643223874e-01 9.5632000853813128e+00 1 0 0
2966 1 3.0471216832494790e+00 5.4918444407345914e+00 2.2161106808889395e+00 0 0 1
111 1 4.5820958106964964e+00 3.2542935063449967e+00 4.3765442998627728e+00 0 0 0
1294 1 3.6377568153238604e+00 5.3855593238872679e-01 8.3479118773615983e+00 0 1 0
1377 1 4.5669122839641485e+00 4.7688414685575067e+00 6.0685635818642432e+00 0 1 0
2278 1 1.2864644808219010e+00 5.1491085114179480e+00 4.7672574365479194e+00 1 0 0
2372 1 2.3760655507043200e+00 2.8609928831519458e+00 7.4163078158122611e+00 1 0 0
1135 1 1.4902686545646970e+00 4.8941090936807141e-01 8.2918243917422008e-01 0 1 0
1495 1 5.7259078620835666e+00 8.2061416566857270e-01 1.1004180726153253e+01 0 1 0
1152 1 1.1660111291053128e+00 3.3391253029394887e+00 3.6172484260167939e+00 0 0 0
3116 1 5.6003562602413872e+00 6.7243840622306961e-01 5.5005902043173762e+00 0 0 0
1131 1 2.9725138610091255e+00 4.9884975777094009e+00 2.7931128624271823e-01 0 0 0
707 1 4.8496114684156968e+00 3.0572752019604024e+00 7.2123017806348182e+00 0 0 1
848 1 4.8225673153374711e+00 2.3172175107397623e+00 5.2963452867024454e+00 -1 0 1
1327 1 5.4721095143132024e+00 2.6041215336973527e+00 4.4160681528875942e+00 0 1 0
1288 1 5.7478452624371235e+00 1.8947660733000611e+00 1.2210891629581393e+00 0 0 0
2225 1 2.8648037360569650e-01 4.6870469684811953e+00 2.0740400540804300e+00 1 0 0
2327 1 2.6517286041917769e+00 2.6271393079243011e-01 9.9081151416125000e+00 1 0 0
3195 1 3.8887315658215932e-01 2.6088457330228096e+00 3.6057852784527245e+00 1 1 0
2054 1 3.6713363276475524e+00 2.2684023500480528e+00 1.1109281764707666e+00 0 1 1
3518 1 4.3692767435838311e+00 8.6386292156637579e-01 1.0879537223951564e+01 0 1 0
2151 1 5.4048046612381684e-01 1.2646118327937386e+00 6.5047669435120401e+00 1 0 0
2116 1 1.0719865416596093e+00 9.8088853024840017e-01 3.2935104216398718e+00 0 0 0
1264 1 5.8721613294141290e+00 4.0944808601582823e+00 8.1620954361391487e+00 0 0 0
244 1 1.4446926502283977e+00 4.9909367339477821e+00 1.8623359580846501e+00 0 0 0
1115 1 2.2992828539176862e+00 4.1703197515146622e+00 6.1376959990157665e-01 0 0 0
1359 1 2.5498012871925146e+00 1.4388279619117585e+00 9.9770259171912219e+00 0 1 0
245 1 2.9471021076825696e+00 5.3573390239361034e+00 3.2546118807813058e+00 0 0 0
344 1 3.7266164034233196e+00 3.8396141649785496e+00 9.0556607769120099e+00 0 0 0
479 1 5.3243473410609070e+00 4.8600297207467493e+00 1.0229352855722661e+01 0 0 0
314 1 3.7920465851614362e+00 3.6611020929945692e-01 6.7121668307913103e+00 0 0 0
3398 1 2.6489372944051901e+00 3.4813974168984378e+00 1.0221654629343753e+01 1 0 0
2031 1 3.9538402420985839e+00 3.3396548468750455e+00 1.3697996445606284e+00 0 0 1
139 1 5.3705563167113537e+00 2.7673316478435526e+00 6.2317171805394684e+00 0 0 0
1192 1 2.6845301549398570e+00 2.0116757322960868e+00 9.9723851846339551e-01 0 1 0
2269 1 3.4975026345556643e+00 4.5039603663501255e+00 6.4859899014663380e+00 1 0 0
1431 1 5.0748515578918303e+00 2.0845342136660525e+00 9.1846008540626709e+00 0 1 0
242 1 9.1265450411101123e-01 2.5730763810970543e+00 8.5626249379074064e+00 1 0 0
1464 1 1.7339117493043146e+00 5.4391500039267324e+00 1.0464737828950453e+01 0 0 0
1042 1 3.0085140899225107e+00 2.0398937990259891e+00 2.8952621551606099e+00 0 0 1
2420 1 2.6627801646554805e+00 3.1413407593963596e+00 9.2569359853036897e+00 1 0 0
1386 1 5.6057150762572601e+00 5.3276851184299225e+00 9.1911089033402202e+00 0 0 0
19 1 4.7086048113589944e+00 5.6305045674133138e+00 4.6302300317782574e+00 0 0 0
2038 1 3.1376457923346619e+00 2.5658095440478443e+00 8.4554197466234040e+00 0 1 1
3034 1 5.7511053825197456e+00 3.1415860423771353e+00 1.3111524259122080e+00 1 1 1
3449 1 6.0274235577730231e+00 2.9861716429591181e+00 5.3451294668059086e+00 1 0 0
4033 1 2.6047325193394313e+00 8.8069385930452149e-01 3.3284399644135515e-02 0 1 1
449 1 1.5880331977280830e+00 3.4457089256801736e+00 1.0688839391463203e+01 0 0 0
2279 1 1.5381435011327897e+00 2.7329277361148324e-01 6.6462089726210598e+00 1 0 0
1232 1 8.3051326856856580e-02 4.6424531184221047e+00 1.0682765892058770e+01 0 0 0
3367 1 5.6139561688777402e+00 3.0919874733047132e+00 8.2545643100702097e+00 0 1 0
1183 1 4.3326023915743210e+00 7.8808080793745683e-01 9.2479671921622142e+00 0 1 0
1218 1 5.2345735971669187e+00 3.5015445483372951e+00 5.1176482415048952e+00 0 0 0
396 1 5.7669096949898204e+00 5.9272961656824066e+00 4.8929249905793819e+00 0 0 0
269 1 4.4146525729099331e+00 4.9016637503884279e+00 7.2793650107996983e+00 0 0 0
2329 1 5.5927013779397470e+00 5.8742514192499069e+00 7.2390311554858471e+00 0 0 0
81 1 5.5626109436889708e+00 3.8312131198252284e+00 4.1325290167281148e+00 0 0 0
2039 1 1.5584632250909045e-02 2.4074979340111122e-01 1.2849786632448895e-01 0 1 1
2235 1 3.5215410162771281e+00 5.2058084698994005e+00 8.9249059900374590e+00 1 0 0
1092 1 4.0826115875201472e+00 6.0732454525776580e-01 2.9041496343700919e+00 0 1 0
3317 1 8.1778401612738627e-01 5.7511283107414259e+00 3.8055900940521172e+00 1 0 0
144 1 3.1155847939151876e-01 3.3387592684159833e+00 5.4660777164094414e+00 0 0 0
2200 1 1.1225322006560965e+00 3.8140981449519651e+00 4.7911250067272384e+00 1 0 0
3092 1 2.9352316706987978e+00 4.4079330825643996e+00 2.3696510565575868e+00 1 0 1
1171 1 4.8191288965109527e+00 8.3014456848883822e-01 2.2329485202435531e+00 0 1 0
310 1 3.3631131571569819e+00 3.1077531166459171e+00 7.0692964856914688e+00 0 0 0
49 1 6.0634031516576359e+00 4.2932921974931126e+00 2.9548207417756167e+00 0 0 0
283 1 5.6209107450427513e+00 5.7150052901456254e+00 1.0939510785152198e+01 0 0 0
1272 1 3.1387956595866333e+00 2.2931262074665910e+00 6.4661329490672417e+00 0 1 0
2379 1 6.2451807218050499e+00 4.3002628877717992e+00 9.7139835072809344e+00 0 0 0
1262 1 4.7420046494700880e+00 4.0987373653216270e+00 1.9254312734535206e+00 0 0 0
222 1 1.6180493526174882e+00 1.4312828035882399e+00 5.8242056380100460e-01 0 1 0
1446 1 6.3932634820620948e-01 1.8980595813889125e+00 1.0861749196798606e+01 0 1 0
193 1 5.3198920175929487e+00 4.8119969561329556e+00 3.5429818289336090e+00 0 0 0
3226 1 1.7406061183876953e+00 3.6203781919743978e+00 7.6965667839597138e+00 0 0 0
1442 1 3.8590917998103782e+00 3.0253898113666033e+00 9.8728606834364605e+00 0 1 0
256 1 4.3841559527056875e+00 2.1404595259711185e+00 4.3959601658261462e+00 0 0 0
23 1 2.9271049207326052e+00 2.9988200407962626e+00 8.4892996374616714e-01 0 0 0
2359 1 3.2947774516400075e+00 1.1624095166952984e+00 1.0815034821214139e+01 0 0 0
1061 1 5.8969224585983104e+00 1.7546377916588145e+00 5.1350856134964049e+00 0 1 0
2000 1 5.7309824536190854e+00 2.3794709082701901e-01 1.7765795056829949e+00 0 0 1
3249 1 2.8977667808351248e+00 9.0952736699080927e-01 1.1221737573828245e+00 1 0 0
262 1 3.4824790765116971e+00 5.6345539510425207e+00 7.1524933129663486e+00 0 0 0
2397 1 9.6517388017810124e-02 2.4811007030177366e+00 7.3875389522355874e+00 1 0 0
1319 1 1.4681561779391537e+00 4.5707148168102423e+00 7.2011419589333290e+00 0 0 0
3031 1 4.5271588526171236e+00 5.2856107200135050e+00 1.2904603151251335e+00 0 -1 1
191 1 2.1686096783137176e+00 2.1485312057331121e+00 2.3465105918825500e+00 0 1 0
2221 1 2.6926822263403476e-02 2.3193430999329494e+00 5.5565550004033017e+00 1 0 0
338 1 4.0354314600532790e+00 1.6917137199017300e+00 8.8503594450779151e+00 0 0 0
1419 1 5.0134355053169033e+00 4.1281484215610496e+00 7.5821123386808091e+00 0 0 0
3309 1 2.4832676528460267e+00 3.9954174188789598e-01 1.9304310083582741e+00 1 1 0
2110 1 1.7648757234752588e+00 2.7607434278406862e-01 2.8971742515506445e+00 1 0 0
2339 1 1.9959101588397303e+00 2.6786538891557514e+00 2.9222624093039895e-01 1 0 0
3247 1 9.0188236216859308e-01 2.7309429041595554e+00 4.7024376504024206e+00 1 0 0
1956 1 5.5029943978666660e+00 2.3520691787947210e+00 1.7608989305254986e-02 0 1 1
4093 1 3.8819671302023186e+00 5.8868139276583502e+00 1.1619125420300724e-01 0 0 1
160 1 3.1132035186676332e-01 5.7246828075071106e+00 4.8876445085434206e+00 0 0 0
1236 1 4.0950847384604057e+00 1.9293989410428367e-01 4.9044233437948419e+00 0 1 0
1068 1 5.8102582474570950e+00 5.6895708903283566e+00 2.7912997940585140e+00 0 0 0
2401 1 7.8405663307565421e-01 1.1037322996486074e+00 1.0692228971620385e-02 1 0 0
320 1 4.7034252321059906e+00 3.0394898214134640e+00 1.0569959703752906e+01 0 0 0
1087 1 3.6911410615520324e+00 2.4808896103588536e+00 1.0049043397021197e-01 0 1 0
1311 1 1.6298777678283169e+00 6.4790574732962347e-02 5.6316252035747816e+00 0 1 0
2289 1 1.0514312649084558e-01 2.8216278554425149e+00 1.2512436229394799e+00 1 0 0
2433 1 2.5243715499099217e-01 2.0062055193181956e+00 9.6070687148548686e+00 1 0 0
1186 1 3.5128322226022326e+00 9.0432906582467269e-03 5.7930788175293593e+00 0 1 0
1101 1 5.4430869469780685e+00 5.9411464399263219e+00 3.8765368007569028e+00 0 0 0
3313 1 2.5984650868497248e+00 5.7438476707497248e+00 9.2879249605328944e+00 1 0 0
183 1 5.3384340130146990e+00 5.7687844929419700e+00 9.4048134927325344e-01 0 0 0
2476 1 2.4668567132683310e+00 5.1228540100309123e+00 1.1040041780329101e+01 1 0 0
333 1 2.3136603985648296e+00 4.1060445595641530e+00 1.1075753909501961e+01 0 0 0
2094 1 2.6276525162303532e-01 5.9355518404958287e+00 8.0393074685345294e+00 1 0 0
856 1 7.0864742967401917e-01 3.9194149114065109e+00 2.1470993783633126e+01 0 0 0
431 1 3.1278032892623928e+00 5.8787272664554102e+00 1.3719166616565145e+01 0 0 0
1764 1 4.0927830629782687e+00 2.4191121672959119e+00 2.1831324824814228e+01 0 1 0
1625 1 1.1496019776795598e+00 4.8017286106762382e+00 1.6914966442523319e+01 0 0 0
3777 1 5.6825725395999447e+00 3.8403881913977789e+00 2.0753412871733520e+01 0 0 0
505 1 2.2489685446964311e+00 2.1300758008227483e+00 2.1689377228947173e+01 0 0 0
331 1 5.4990653810199221e+00 3.7842205869711369e+00 1.1776299807921035e+01 -1 0 0
321 1 4.3398421470362203e-01 2.9507534708380656e+00 1.2423924305946924e+01 0 0 0
551 1 5.0814647734633960e+00 2.6236317228329648e-01 2.0086987265682520e+01 -1 0 0
1653 1 5.5817463084768324e+00 2.6914157746147791e+00 1.7574829644591606e+01 0 0 0
518 1 2.8822880389432424e+00 5.5367078729496404e+00 1.6984158817679237e+01 0 -1 0
3843 1 6.1490822183798430e+00 3.9446894633921823e+00 1.9811332691455267e+01 0 0 0
402 1 3.6353152823324004e+00 2.2311363800885644e+00 1.8092360578667023e+01 0 0 0
440 1 5.4002948319752608e+00 5.1328210749707335e+00 1.6149862598340334e+01 0 0 0