LAMMPS data file via write_data, version 17 Nov 2016, timestep = 40000

6055 atoms
1 atom types

0.0000000000000000e+00 1.3950649026012398e+01 xlo xhi
0.0000000000000000e+00 1.3950649026012398e+01 ylo yhi
0.0000000000000000e+00 3.1001442280027550e+01 zlo zhi

Masses

1 1

Atoms # atomic

528 1 3.6475691833052082e+00 4.9140807689029895e+00 5.6495414823978303e+00 0 0 0
347 1 9.4833895132765167e-01 4.9536711689130648e+00 4.0208056894369171e-01 0 0 0
3344 1 1.9659396933026669e+00 6.5809960826465987e+00 3.3866809504542141e+00 0 0 0
4853 1 6.7674952221457430e+00 2.9465012090134177e+00 3.8909394876255847e+00 0 1 0
1806 1 4.5498240497289855e+00 1.8901429718351679e+00 8.9515378460341877e-01 0 1 0
1772 1 6.4932290427182071e+00 1.8271086095701299e+00 6.1247401172272040e+00 0 1 0
3493 1 7.3812972178240988e-01 2.8017109092041288e+00 4.9980263634338371e+00 1 0 0
1844 1 3.4339307970294937e+00 1.2357406752239806e+00 8.1888100769911887e+00 0 1 0
5075 1 4.0428297809625509e+00 1.1366598922451858e+00 6.7613983535831066e+00 1 1 0
464 1 2.4037201297937707e+00 1.4641594492927651e-01 4.5011176320527406e+00 0 0 0
20 1 1.1288827882755053e+00 7.4817352056891928e-01 6.8511211690193887e+00 0 0 0
1855 1 6.5874526519795955e+00 1.3994865690575031e+00 4.1991581069998061e+00 0 1 0
3348 1 1.6827957559943476e+00 6.9168440732023706e+00 9.6033343114491831e+00 1 0 0
1468 1 2.7581680346185595e+00 3.5833989626569642e+00 3.2167991437337995e+00 0 0 1
3371 1 6.1406775197926065e+00 4.0561935367282782e+00 3.2387849186441459e-01 0 0 0
571 1 2.8641085816806200e+00 4.8925403792242230e+00 9.9294094958891286e+00 0 0 0
4751 1 2.5723509694393725e+00 2.4663752393228826e+00 1.4909738133202544e+00 0 0 0
5882 1 4.3146998494668383e+00 3.7627692495139691e+00 4.7706047943670510e-01 0 1 1
4593 1 3.0014599064907705e+00 5.0605131792129505e+00 2.6307882265483591e+00 0 0 0
123 1 3.3863288210668641e+00 1.9590211359672489e+00 4.3074437903363663e+00 0 0 0
4641 1 2.0648491696434990e+00 2.9731987021642086e+00 3.5446980521425324e+00 0 0 0
377 1 3.0711121853814731e+00 1.1298561038231409e+00 6.9872338891592403e+00 0 0 0
124 1 2.4734278497928619e+00 5.9082359077397485e-02 3.5556312676586010e+00 0 0 0
1266 1 5.6487463190521057e+00 3.9430097292090336e+00 2.2647144549018452e+00 0 0 1
514 1 1.1321105964200915e+00 4.1866489520902350e+00 5.3203841679357264e+00 0 0 0
4731 1 3.2394468798583280e+00 3.7601300430407897e-01 4.6736686677484623e-01 0 1 0
1863 1 2.6147801893340916e+00 1.9527727369976615e+00 6.0443430135958272e+00 0 1 0
1497 1 4.1853674803918581e+00 2.9381527618061820e-01 7.0645126470495270e-02 0 0 1
4461 1 5.9794513055379470e+00 2.5706735894271331e+00 1.4583023945606766e+00 0 0 1
3186 1 1.8635607862109504e+00 5.3895969432469100e+00 5.2631506820891190e+00 1 0 0
3220 1 5.6943083102485641e+00 5.8249847457746515e+00 1.8241051035010794e-01 0 0 0
209 1 4.9206928007035824e+00 6.5503270727974314e+00 4.0266235611600099e-01 0 0 0
1418 1 6.0815087619302934e+00 1.2232175203579327e+00 3.3717664519496169e+00 0 0 1
258 1 3.2291699993504661e+00 4.2206927679400366e+00 7.3396115444258925e-01 0 0 0
1759 1 1.0887873531853511e+00 3.9387028796320758e+00 6.4696356602953857e+00 0 0 0
1620 1 1.8167977340643477e+00 1.8260027088081365e+00 1.2421235506501562e+00 0 1 0
4404 1 1.7917197194583940e+00 1.3137543183598168e+00 1.6387788127543895e-01 0 0 1
1561 1 5.5955472663173671e+00 7.0228633016391884e-01 5.8784158191109563e+00 0 1 0
471 1 2.7881603755153384e+00 6.8673735784902492e+00 1.0060133633810949e+01 0 0 0
568 1 4.2207730334914952e+00 3.3817553835753205e+00 8.6072675385548010e+00 0 0 0
1932 1 2.2927513246314302e+00 8.3519832325112209e-01 8.2274544839915222e+00 0 1 0
4536 1 2.4637624153871691e+00 3.9144969987152032e+00 1.8886053444114101e-01 0 0 1
613 1 5.1328297059213472e+00 6.5843275078773891e+00 8.5476527639998583e+00 0 0 0
4934 1 4.3106171228844543e+00 5.8346816234941432e+00 2.8573629156014499e+00 0 0 0
472 1 5.8223107335073481e+00 1.6795398755853201e+00 7.3269772810359228e+00 0 0 0
497 1 8.5115880775137515e-02 3.0420913641091967e+00 8.3290942473520762e+00 0 0 0
283 1 4.7736001397477219e+00 6.5248897743483267e+00 2.2682304120593959e+00 0 0 0
3530 1 3.3350369452030768e+00 6.2035211748955223e+00 9.5237521082388614e+00 1 0 0
186 1 8.1116356948935708e-01 3.3525965209622277e+00 1.6631258135109785e+00 0 0 0
307 1 3.7443746100306550e+00 1.0737219162971889e+00 9.3826173959750232e+00 0 0 0
323 1 5.7464697017427762e+00 4.9952453275669493e+00 4.9128671839278724e+00 0 0 0
4392 1 6.0319874942154894e-01 2.5958292969463809e-01 1.4634866300639449e+00 1 0 1
183 1 3.5256821299728607e+00 5.4495312273616436e-01 6.1399412511498639e+00 0 0 0
583 1 3.2369666858021451e+00 3.6054622447979501e+00 8.6353731321044940e+00 0 0 0
1653 1 4.8518643620041741e+00 4.2841681849204910e-01 2.4891115398990706e+00 0 1 0
295 1 2.1285099693326428e+00 2.3563484592437818e+00 6.9216461058693408e+00 0 0 0
5655 1 5.2122707738024898e+00 5.1762037608362972e+00 5.7929692866143538e+00 0 1 1
147 1 1.4949516211236558e+00 6.8083297671367040e+00 1.0395728944596379e+00 0 0 0
3394 1 5.6970541922061546e+00 5.9981468239047580e+00 1.1873177158551809e+00 0 0 0
3261 1 5.3010156333745906e+00 5.3915823293565843e+00 8.5248595342295026e+00 0 0 0
4771 1 5.3090369502659609e+00 2.2522617781892995e+00 3.4661289280386764e+00 0 1 0
460 1 7.5873618006926924e-01 5.9267107567784869e+00 8.3779037647269838e+00 0 0 0
1604 1 1.6271448346665712e-01 2.9518835032722031e+00 4.0521725883484638e+00 0 1 0
3549 1 4.4555118671361199e-01 8.2249089702591804e-01 4.2986328825653768e+00 1 0 0
3324 1 8.5280749966034419e-01 5.9486982466631027e+00 5.0977684469702709e+00 0 0 0
3062 1 4.1224753073836062e+00 4.8463438376840102e+00 1.0415381664428698e+00 0 0 0
4742 1 3.7630003705668913e+00 1.9858176218195389e-01 6.9821080076350075e+00 0 1 0
1676 1 2.7084968424630609e+00 6.0186865968851002e+00 4.2690592649742802e+00 0 0 0
1818 1 9.0782200120364831e-01 6.8308925895098689e+00 9.0198379565280362e+00 0 0 0
4668 1 5.2430964530000335e+00 2.8068261804026848e+00 2.1956150088800004e+00 0 0 0
3287 1 3.9231147426484489e+00 1.5763815552245071e+00 5.0839732242284654e+00 0 0 0
393 1 2.0522799755252166e+00 3.6051010230702083e+00 6.5934622827091944e+00 0 0 0
3045 1 1.4608582171597790e+00 1.2779129896842576e+00 6.0940245523047434e+00 1 0 0
4992 1 6.6651797879492864e+00 4.2352133662356888e+00 6.0072275808781521e+00 0 0 0
3238 1 2.8812750885655309e+00 4.2292413061870020e+00 6.8707715632384421e+00 0 0 0
455 1 2.8023634394095287e-01 2.1502324657413827e+00 9.2765652627627606e+00 0 0 0
424 1 4.6057121294613159e+00 4.3876825209803183e+00 5.5610600394923244e+00 0 0 0
4666 1 3.7018241083932518e-01 2.8245718893462562e-01 2.9687705562783728e+00 1 1 0
4766 1 6.2772663761903029e+00 5.8107499747291111e+00 5.2614858048006043e+00 0 0 0
3362 1 1.3734086487824724e+00 2.9877537950535498e+00 7.0894956676557443e+00 1 0 0
4850 1 2.9265433190872678e+00 5.2526609521947956e+00 7.0509059824051903e+00 1 0 0
2143 1 3.5177156276498631e+00 5.7444012680615719e+00 4.9275814157654763e+00 0 1 0
252 1 4.8652712459516136e+00 2.2140967045473436e+00 5.4285483260444085e+00 0 0 0
1389 1 2.9873590190118922e+00 9.9012208600810836e-02 2.4447669017612230e+00 0 0 1
3228 1 6.7067248346534489e+00 6.6300906355340938e+00 6.2572773883895021e+00 0 0 0
1648 1 2.0577121832630461e+00 2.1287808800763444e-01 9.5197104725144062e+00 0 1 0
1971 1 5.6738454287510649e+00 1.9341111508876636e+00 4.4203397436141643e+00 0 1 0
5969 1 4.1514299295894803e+00 4.8567703542071046e+00 2.5594601235437837e+00 0 0 1
4728 1 6.7416603677163467e+00 2.2535307601710897e+00 4.7770862178391535e+00 0 1 0
299 1 6.5280648979820972e+00 4.2625761657693326e+00 4.9783931671290329e+00 0 0 0
172 1 9.9826331876688337e-02 4.7554212527059745e+00 7.2536765104396990e+00 0 0 0
3050 1 1.4740617436563155e+00 3.8006663939670506e+00 6.8008391423939862e-01 0 0 0
3241 1 1.8632266153857662e+00 1.2018963598889507e+00 5.0994592618136041e+00 1 0 0
1458 1 6.1048228630843058e+00 1.6880215085165495e+00 3.4118512883278990e-01 0 0 1
3654 1 4.9106380416941606e+00 3.3509187147003945e+00 6.3164802439669900e+00 1 0 0
622 1 2.8664684923884987e+00 6.9626701970447680e-01 9.4620886242714146e+00 0 0 0
1726 1 6.6237819295916616e+00 6.6658874023144776e-01 2.6601712861079561e+00 -1 1 0
3158 1 4.8931237071638138e+00 5.2962333635204280e+00 6.1165296622343091e-01 0 0 0
199 1 2.8031150785161714e+00 4.0546773405812271e+00 5.8800012980012113e+00 0 0 0
18 1 1.6419517984944212e+00 2.9545537797240842e+00 1.3035143294964893e+00 0 0 0
5788 1 4.2151446612743158e+00 2.1264384633857616e-01 1.5635397853340223e+00 0 1 1
1574 1 1.4259663375973781e+00 5.4997001708125497e+00 7.4019020208696276e+00 0 0 0
4614 1 7.7446363055528811e-01 1.5964801876438892e+00 1.6765904693785216e+00 1 1 0
235 1 5.5153240869250029e+00 4.3111800584426394e+00 6.2042445834677133e+00 -1 0 0
1646 1 2.2680315528563808e+00 5.9901647596314209e+00 7.5048850628717698e+00 0 1 0
1796 1 6.0247450104634837e+00 6.6351323147124042e+00 1.0121533869115716e+01 0 0 0
1493 1 5.7295300088251002e+00 3.1112897736363312e+00 4.0578563995562416e+00 0 0 1
434 1 6.3747441331565220e+00 1.8394263460594815e+00 1.0043213154115339e+01 0 0 0
4752 1 4.3034924863248962e+00 1.8226038803348585e+00 8.5901985423768590e+00 0 0 0
1039 1 1.5770800441632762e+00 2.4122608685449971e+00 2.0880910983209438e+00 0 0 1
1517 1 4.1771139921881053e+00 2.4574869253822045e+00 1.8426381333127191e+00 0 0 1
4657 1 7.1188753831759988e-01 1.8807371058360323e+00 5.5482854179785823e+00 1 1 0
5991 1 3.8339352470567936e+00 3.4576287729167756e+00 1.2450473208038528e+00 0 0 1
3153 1 2.7190148601312075e-01 4.5734574122009422e+00 5.9739046075281461e+00 1 0 0
562 1 4.0367116594684012e+00 5.5958180894025160e+00 8.4779909654379537e+00 0 0 0
113 1 2.5713434360536298e+00 4.5854160425038595e+00 3.3901970522477778e+00 0 0 0
4377 1 2.4354893567605829e+00 4.6038475467385158e+00 1.3483042055474004e+00 0 0 1
3212 1 1.8586337710707037e+00 4.3856984744707805e+00 6.0244238731257971e+00 0 0 0
569 1 3.4429865241094686e+00 2.4777069163132968e+00 8.6244352158115891e+00 0 0 0
1627 1 2.4171433798362671e+00 6.5384303676696831e+00 1.5379183093353048e+00 0 1 0
535 1 4.0482947178387887e+00 2.8515094397406044e+00 7.1133484392667503e+00 0 0 0
627 1 5.9765514783652947e+00 1.6978248143538053e+00 9.1489364929909467e+00 0 0 0
4664 1 4.7566477013144617e+00 4.2699511230595339e+00 6.9175222898942010e+00 0 0 0
329 1 3.7191752097136294e-01 5.0993822272882880e+00 3.8163341592585365e+00 0 0 0
369 1 4.4089562505818787e+00 5.0712608443375746e+00 6.3393788393968125e+00 0 0 0
3041 1 3.5011094090337718e+00 2.0321823827174881e+00 2.5599842183867603e+00 0 0 0
3390 1 3.6901938484720648e-01 6.1377591010238062e+00 4.0228624897747327e+00 1 0 0
1803 1 6.9704589847827769e+00 5.0270748863065196e+00 1.0275109848440035e+01 0 1 0
3216 1 4.3284637617717259e+00 6.4728431808947358e+00 5.0352284091596440e+00 0 0 0
4470 1 5.9295233070603244e+00 1.5872521113976341e+00 1.2816235811861769e+00 0 0 1
505 1 5.5156944712174143e+00 2.5948760247488627e+00 9.9644899272923038e+00 0 0 0
405 1 6.7215883515552592e+00 4.6787673512986327e-01 6.1049255213129685e+00 0 1 0
733 1 6.3451772412861525e+00 3.8891663947239068e+00 1.0007163686821206e+01 0 0 0
446 1 3.4879496020259664e+00 2.6465300017432960e+00 6.0915889820927189e+00 0 0 0
3075 1 5.6145030968886527e+00 1.7541563220883469e+00 2.6284930183377098e+00 0 0 0
55 1 3.2966114991642477e+00 6.3413747234636242e+00 8.5042296271482554e-01 0 0 0
15 1 1.1752821649954637e+00 9.0492346300389814e-01 7.8083468253506618e+00 0 0 0
265 1 4.1367850429953162e-01 5.7018247861170899e+00 7.4329184359050231e+00 1 0 0
5878 1 2.3405857452292249e+00 3.0062181897720333e+00 6.0191640497163856e-01 0 1 1
1202 1 4.8427096606156433e-01 6.7006723680540841e+00 9.5764542657056273e-01 0 0 1
4801 1 8.4698329855697330e-01 4.3021544732613188e+00 2.2911661184690573e+00 1 0 0
250 1 1.4409940769760872e+00 1.0986298832328700e+00 8.8060241615277413e+00 0 0 0
1326 1 4.3400772666576790e+00 2.8006070878948601e+00 5.7083993441877745e-01 0 0 1
2953 1 4.6650178342067310e+00 4.2261933309503759e+00 1.7813670195267166e+00 0 0 1
3355 1 4.8342332140314168e+00 3.2298755577514866e+00 1.4174784161753560e+00 0 0 0
4682 1 6.3082300180246200e+00 4.2463979693671883e-01 4.1126273448349480e+00 0 1 0
1930 1 3.1930487472019489e+00 2.0930256129929301e+00 6.8390663174260542e+00 0 1 0
4753 1 2.3895443327690140e+00 2.9723019101814687e+00 5.8895174349380612e+00 1 1 0
246 1 6.1438279462511070e-01 2.4320312944358555e+00 2.2405069135226361e+00 0 0 0
6026 1 2.5879693640019901e+00 4.2278018203899244e+00 2.4202730635318872e+00 0 1 1
479 1 3.0166018621938742e+00 3.2512039682704441e+00 6.8716815476796915e+00 0 0 0
2044 1 9.5463046403448304e-01 5.9615325842414411e+00 6.6407942152618959e+00 0 1 0
1634 1 3.5326827489910162e+00 6.7754904721474078e+00 5.9589268044551718e+00 0 0 0
3647 1 1.7151580576147876e+00 4.7674612639170064e+00 9.6721360734307922e+00 1 0 0
5007 1 6.1771796199855507e+00 6.7683861856502299e+00 8.4557252024940190e+00 0 0 0
4700 1 5.8240519223462579e+00 8.5781345874770332e-01 2.0457530062598552e+00 0 1 0
318 1 4.9766860171680660e+00 4.6899784333042280e+00 4.3003766859748120e+00 0 0 0
595 1 4.1102185286818660e+00 4.0398831161672142e+00 3.7411268478051607e+00 0 0 0
3702 1 5.1372023438725671e+00 3.2979230417808632e+00 7.4568218661525272e+00 1 0 0
1321 1 1.3448758648026005e+00 6.2020625214573064e+00 2.0778810764269098e+00 0 0 1
357 1 1.2504497423570264e+00 1.7948268030732180e+00 9.5623225586955520e+00 0 0 0
2083 1 1.7210154725605342e+00 3.4706593262829846e+00 1.0141942977251754e+01 0 0 0
5282 1 5.5304294827447196e+00 4.5931713122999058e+00 9.5915978091152230e+00 0 0 0
5109 1 5.4758394667753079e+00 8.8757720364106577e-02 9.7629536740533549e+00 0 1 0
5663 1 3.9682337798598826e+00 8.5158582805964844e-01 2.6257890821466079e+00 0 1 1
3447 1 2.6800611534889054e+00 1.6332374711770816e+00 1.0315709538642395e+01 0 0 0
597 1 6.3471272767445237e+00 2.5074596438879166e+00 8.7028058752399122e+00 0 0 0
3373 1 5.2737577268555746e+00 6.0056785849016272e+00 5.3523114585392708e+00 0 0 0
1834 1 4.4690689859435615e+00 6.9579142805455874e-01 5.7828300761823694e+00 0 1 0
478 1 3.6427342044188853e+00 2.9792274198918096e+00 9.6082753429715275e+00 0 0 0
3322 1 2.3113960166814613e+00 6.3148066111044034e+00 2.4883652163959500e+00 1 0 0
4851 1 4.4907430980318486e+00 2.5700531019380142e+00 2.8757303668052816e+00 1 0 0
3333 1 5.7555048658369952e+00 3.1834375487242168e+00 3.0286851213569932e+00 0 0 0
216 1 3.9089189484771338e-02 5.0268993508260156e+00 1.5129215623781775e+00 0 0 0
10 1 4.6718706534293393e+00 4.9917936423816904e+00 9.2860847235833344e+00 0 0 0
1530 1 2.2318898263400646e+00 5.6830587785975606e-01 1.7604469504325626e+00 0 0 1
5847 1 4.7089059183142750e+00 2.8748078016435210e+00 3.8855145191918576e+00 0 0 1
1830 1 1.8540620666137362e+00 1.2540984437418601e-01 7.6467414434642116e+00 0 1 0
167 1 1.5272885347969545e+00 3.3373637007031229e+00 5.7217650794781862e+00 0 0 0
3489 1 6.6486482168428971e+00 7.5885011157425561e-02 5.1240992554122382e+00 0 0 0
413 1 4.1603428462707273e+00 6.5624120325472992e+00 6.8267124075090262e+00 0 0 0
304 1 4.5237600435599052e+00 5.3236348497946455e+00 5.1273183740142949e+00 0 0 0
3223 1 4.6746093098749517e+00 1.7609415510019393e+00 4.4076678244087786e+00 0 0 0
2755 1 3.2069677796453462e+00 4.6603509496125739e-01 1.4713806921766854e+00 0 0 1
321 1 1.5996412158800586e+00 5.8061116399331745e+00 4.0766245946415189e+00 0 0 0
3533 1 4.6535020518258916e+00 4.0013608251155190e+00 2.9114149455089722e+00 0 0 0
371 1 5.4711508752613387e+00 4.7222922756710011e+00 1.3741378538421742e+00 0 0 0
1938 1 5.6852860077739837e+00 2.6910153719938923e+00 6.1736217909566564e+00 0 0 0
3482 1 2.7305999757663557e-01 1.1609833656882884e+00 7.2978780090912450e+00 1 0 0
3703 1 3.9754582809427812e+00 3.7886111135554015e+00 6.3523951729211392e+00 0 0 0
3332 1 1.7145464939957389e+00 1.1381068843054134e+00 4.1103972096501815e+00 0 0 0
4512 1 2.2603758376735970e+00 4.1724500350557869e-01 7.8159330918302938e-01 0 0 1
193 1 2.9348371512194866e+00 4.2841165674769890e+00 4.3509237364995448e+00 0 0 0
2006 1 1.3124993551941785e-01 3.1511957774932681e-02 9.9749890289211187e+00 1 1 0
2087 1 4.2079316510706560e-01 9.8221186507777936e-01 9.4425269692425235e+00 0 1 0
1611 1 5.2934381163195017e+00 3.4939560183273790e+00 1.0000294181448961e+01 0 1 0
244 1 6.2900293644358811e+00 4.0219172353105339e+00 4.0988482429038324e+00 -1 0 0
1939 1 3.0534118112003492e+00 1.1224366920789499e+00 2.2276647909092899e+00 0 1 0
134 1 3.3698555055358446e+00 3.2591496824653645e+00 3.7205169550459033e-01 0 0 0
5994 1 2.8699299650099910e+00 5.0543103395379321e+00 5.1140373938582862e+00 0 0 1
3352 1 6.7234345765538457e+00 5.9989823424689446e+00 1.3813258718353891e+00 0 0 0
3296 1 6.7393671909289781e+00 3.4644669059850477e+00 2.8826748357208221e+00 0 0 0
3361 1 1.3378892596853695e+00 3.8413058029156533e-01 4.6506429085075647e+00 1 0 0
4414 1 6.3294654282874623e+00 2.2298971134175893e+00 3.3580214831234065e+00 0 0 1
138 1 7.8290061175256676e-01 1.8686357665483007e+00 6.6436255483032172e+00 0 0 0
3038 1 1.4414053381354388e+00 3.2876363700004716e+00 8.4009807901574565e+00 1 0 0
4904 1 4.6380091403467869e+00 9.9854392235645806e-01 8.9453269095326640e+00 1 1 0
2036 1 1.1048441943221041e+00 5.0072217830253081e+00 8.8028411267324511e+00 0 1 0
4675 1 4.3298934935015847e+00 3.1668347376901669e+00 5.5415711087856145e+00 0 0 0
3451 1 1.8530441017169081e+00 2.0184364569625765e-01 5.5809532074800927e+00 1 1 0
2168 1 4.7756869364118959e+00 5.0022913476048370e-01 6.8152296824428449e+00 0 1 0
5018 1 5.2355975796710141e-01 4.0218762141045561e+00 8.5644321000749439e+00 1 1 0
1246 1 2.9242291901092665e-01 6.2049044858856002e+00 1.9518528774023598e+00 0 0 1
4188 1 5.2280878165951314e+00 3.9554215203963272e+00 8.9183176931457586e-01 0 0 1
210 1 3.7436376089960528e+00 3.1546677247061470e+00 3.4825578534599462e+00 0 0 0
1289 1 2.2175041686531825e+00 5.0400880555320775e+00 4.2818829626837163e+00 0 0 1
1712 1 8.6296447496320638e-01 8.9426308021495371e-01 5.3787646362857737e+00 0 1 0
1492 1 4.3647515846518354e+00 3.6946309662751320e-01 3.5709543807949333e+00 0 0 1
43 1 8.5211172467011065e-01 1.4950184637959194e+00 2.6768203128545176e+00 0 0 0
4707 1 5.5342965935392376e+00 3.4380047777732253e-01 4.9860289703886895e+00 1 1 0
1667 1 8.0021038564442992e-01 1.6451256129371044e+00 4.4498340742123760e-01 0 1 0
3043 1 4.6129199000195467e+00 5.1718588115499942e-01 4.5789391793499536e+00 0 0 0
544 1 5.8551323071022834e+00 3.5576367282079411e+00 5.7645350070718173e+00 0 0 0
1764 1 5.4393664668356099e+00 1.1729819452324839e+00 8.3835510780337508e+00 0 1 0
152 1 2.5206068808800991e-01 1.7883856583029318e+00 4.7239461232877726e+00 0 1 0
3393 1 6.3367445268283582e+00 1.0383055640834402e+00 5.0322854100663044e+00 0 1 0
229 1 3.5974639512688045e+00 4.0340702918189173e+00 2.9172815763124298e+00 0 0 0
60 1 2.0683304567209033e+00 4.9483499875607526e+00 4.8595905172364462e-01 0 0 0
4721 1 6.3917500353786343e+00 3.2125165469885180e+00 4.8515592543253794e+00 0 1 0
4905 1 2.2576820258131147e+00 4.8879558574314501e+00 7.9583148053002946e+00 0 1 0
1549 1 6.2706206298706988e+00 4.2946751352857548e+00 7.7262529343628801e+00 0 1 0
69 1 1.2224292654454501e+00 2.5250977811122524e+00 4.0809186324894560e+00 0 0 0
4791 1 5.8725494910766063e+00 6.4266719310141180e+00 4.5092368992446543e+00 0 0 0
234 1 1.4764056743481522e+00 3.4183299828361844e+00 4.5840821632007946e+00 0 0 0
1908 1 2.0649116651875929e+00 6.3941308790049494e+00 4.9077090068210980e+00 0 0 0
609 1 1.2776012392423914e+00 3.9242600582995326e+00 9.3510895894026529e+00 0 0 0
5958 1 4.5465933228779720e+00 1.5983901488656285e+00 2.3798832217148607e+00 0 1 1
2665 1 6.6375993847825987e-01 1.6955285059930103e+00 3.7465387864872990e+00 0 1 1
4428 1 3.8048066374501834e+00 1.5486999811235709e+00 1.6427588377579234e+00 0 0 1
2898 1 1.6563240245055206e+00 3.8537102619775352e+00 1.7909025483338450e+00 0 0 1
511 1 3.4797665925310306e+00 1.4935323778369700e+00 5.8982015725558687e+00 0 0 0
5015 1 5.8304358836687040e+00 6.7291108689401655e+00 3.5441119187276886e+00 0 1 0
5148 1 5.3380021149300036e+00 5.6712969560226112e+00 9.5236915370756456e+00 0 0 0
5085 1 4.9661805600092084e+00 5.8270977103571511e+00 6.6789172088736803e+00 0 0 0
1893 1 4.2350134939804116e+00 1.9871532388555802e+00 6.3937470767928302e+00 0 1 0
77 1 3.8013739042366197e+00 6.6466986677185727e+00 2.7555819181250656e+00 0 0 0
273 1 5.5335083416876696e+00 4.0175464998209938e+00 4.9457861875883387e+00 0 0 0
1672 1 2.1556387687965124e+00 1.9884155476893250e+00 3.9511668161112095e+00 0 1 0
441 1 5.5551697986329940e-01 1.3185371357828586e+00 8.4380877490929027e+00 1 1 0
4823 1 6.3840372031797417e+00 2.6229413303162036e-01 1.4052789158176571e+00 0 1 0
3351 1 2.0451036797190358e+00 6.8888262199454200e+00 6.5697006153090252e+00 0 0 0
4884 1 5.5067262706145081e+00 1.0446535924608265e+00 9.6742435334239527e+00 0 1 0
3655 1 4.7130628148605158e+00 2.5525800401380794e+00 7.9731741823731710e+00 1 0 0
4809 1 5.5876307130709950e+00 3.9083226980699226e-01 3.2943106531722361e+00 0 1 0
5107 1 1.6190340146184773e-01 6.9015310229118185e+00 8.2852437957096559e+00 1 1 0
1731 1 2.7432700155706899e+00 1.0015556140363358e+00 4.1082820974782761e+00 0 1 0
257 1 3.4803234914892243e+00 3.5933749122461682e+00 5.3861223078457980e+00 0 0 0
3115 1 4.1200178747880498e+00 3.3730964655441400e+00 2.3287476770678857e+00 0 0 0
2117 1 1.4295943965674802e+00 8.4347449110694017e-01 1.0088368660776647e+01 0 1 0
387 1 8.3844753150117790e-01 2.5595774816303773e+00 3.1701047698554472e+00 0 0 0
1787 1 3.7543265493273612e+00 4.8695345127288131e-01 5.1917319546547578e+00 0 1 0
3659 1 6.2096753095910335e+00 5.4601253327426260e+00 8.0806602611444234e+00 1 0 0
3462 1 4.8822874225119159e+00 1.4205441897813649e+00 7.3979978718766715e+00 1 0 0
3249 1 5.4090486874390837e+00 1.6831370956076337e+00 6.1113696379550984e+00 0 0 0
4356 1 5.3036802711607234e-01 3.5404643896923553e+00 3.5943748991169167e-01 0 0 1
2935 1 4.8760322664715501e+00 1.0209528936289560e+00 1.5543130563547523e+00 0 1 1
3382 1 1.7192972240225302e+00 2.4515589369593536e+00 5.0565480458848624e+00 0 1 0
551 1 3.7815336895342706e+00 4.0077436872126855e+00 7.8698530155469983e+00 0 0 0
3395 1 1.0134889309402191e+00 2.3896709131963876e+00 8.5884149356651474e+00 1 0 0
3106 1 6.5384264275093349e+00 1.6188570068950061e+00 2.2826832574652918e+00 1 0 0
3356 1 1.6721453538904418e+00 2.0627320650314798e+00 3.0674675803193985e+00 0 0 0
2854 1 5.3377025029189262e+00 9.0679991924154080e-01 4.1080355874814662e+00 0 1 1
95 1 5.3654915829144452e+00 2.5758058618001884e+00 8.7699097490874021e+00 0 0 0
5908 1 5.9714959136266890e+00 3.1830887695220129e+00 6.1945122717545720e-01 0 0 1
3020 1 5.9368566196817758e+00 2.3140165363546146e+00 5.3326345099826566e+00 0 1 1
1692 1 3.3671305916745800e+00 1.2107449566528627e+00 3.4147415770712137e+00 0 1 0
2689 1 3.5289687167260939e+00 2.3817851145339870e+00 1.0038698813810503e+00 0 1 1
3578 1 6.3911599051234128e-02 3.8162192792207916e+00 6.7675613948876228e+00 1 0 0
1442 1 2.0543102361450218e+00 3.9426733649773058e+00 4.0164322441131581e+00 0 0 1
420 1 2.5449455746854848e+00 3.4823746023959563e+00 4.9349186129055047e+00 0 0 0
3060 1 4.6738676435547237e+00 6.6209931149057715e+00 3.4412184419046876e+00 0 0 0
3285 1 5.0644404415060613e+00 2.3635218512136742e+00 6.9950914920078366e+00 0 0 0
1626 1 2.1416588450905381e+00 5.9213056079103970e+00 7.2338901350737761e-01 0 0 0
1331 1 6.8123676421061514e+00 2.5142483390150208e+00 5.0487319414354503e-01 0 0 1
197 1 1.7615964639840116e+00 5.6338267111173641e+00 8.4513964268638659e+00 0 0 0
1887 1 2.9218896196782720e+00 2.4477794736894323e+00 3.3056597635654219e+00 0 1 0
3245 1 4.4626685311874850e+00 4.1962811548945682e+00 9.8393511467637342e+00 0 0 0
3531 1 8.8357805836409520e-01 4.8354871626947293e+00 7.8573112669409690e+00 1 0 0
543 1 3.1167263605847628e+00 6.7570832632849305e+00 4.9713159509406628e+00 0 0 0
1537 1 6.7086689196583995e+00 4.8239984048406672e+00 6.9415641686012597e+00 -1 0 0
5972 1 6.3754362469843340e+00 4.2184300345561709e+00 1.2548286965067277e+00 0 0 1
3327 1 1.7799519279519562e+00 4.9251169576561358e+00 2.4458096461760501e+00 0 0 0
550 1 2.3918321982182404e+00 2.9682753197080101e+00 8.6595767778320880e+00 0 0 0
5055 1 6.5188787287614041e+00 1.1418674779580826e+00 6.9854173481795296e+00 0 1 0
4794 1 4.7105070448761754e+00 5.7596717859537936e+00 4.2564705472435866e+00 0 0 0
339 1 2.2945363378354204e+00 1.2355178616178168e+00 3.2090129420330546e+00 0 0 0
1618 1 2.9842974107464904e+00 5.9463503319492341e+00 3.2590256285305754e+00 -1 0 0
1531 1 6.5173406577741400e+00 2.6372020234541713e+00 2.3306843137695030e+00 -1 0 1
5161 1 6.2122180133486515e-01 6.7640307020462389e+00 9.9432679551982428e+00 1 0 0
70 1 1.7990755896563702e+00 1.4046192255134680e+00 2.2716285516446408e+00 0 0 0
3219 1 3.6665500589970113e+00 4.9248322045178430e+00 3.5082672133754293e+00 1 0 0
3610 1 5.6315798976836762e-01 4.3015657567647203e+00 3.2105393173054648e+00 1 0 0
506 1 3.9678665573402983e+00 4.3638045470279714e+00 8.7292137714492348e+00 0 0 0
1757 1 1.9679614951139510e+00 4.7633391032195966e+00 6.9461801190100054e+00 0 1 0
4485 1 6.4120316587337438e+00 4.4265542503693496e+00 2.5348230233349525e+00 0 0 1
179 1 2.6060306005730207e+00 5.0723058338063014e+00 6.1866432044343203e+00 0 0 0
3491 1 6.8807379946496479e+00 6.8907481515109961e+00 4.4370638607054032e+00 0 0 0
1888 1 3.4888972893354251e+00 4.4184380337935458e+00 1.8042993410219696e+00 -1 1 0
3454 1 6.1453334456478359e+00 6.1684182662376861e+00 9.2527799399600994e+00 0 0 0
4573 1 6.4676680649606622e-01 3.6706992984532825e+00 7.6373126149384296e+00 1 0 0
2042 1 7.8940852430472508e-01 5.0471281824405709e+00 9.7380465472777242e+00 0 0 0
3341 1 4.1852158800384940e+00 1.9598016859866336e+00 3.5897945561725728e+00 0 0 0
2 1 2.8469768652562695e+00 3.6219746545545894e+00 1.6521896857635248e+00 0 0 0
549 1 5.9613332219109560e+00 3.2660323381431011e+00 9.3248497662898906e+00 0 0 0
315 1 3.5640574249714128e+00 3.3879798247330051e+00 4.4357370038729469e+00 0 0 0
1851 1 1.1809624572156141e-03 6.7623201031551226e+00 2.8282644339320995e+00 0 1 0
493 1 4.6938100402791649e+00 2.8289603812203916e+00 9.3467814777364318e+00 0 0 0
1900 1 6.2682958362748655e+00 8.3577454575638566e-01 8.8962690557945159e+00 1 0 0
196 1 1.1638130111628731e+00 7.1382168543755087e-01 3.3934549188497876e+00 0 0 0
3107 1 1.1492405383895195e+00 2.4607923260258502e-01 1.2281389254405270e-01 1 0 0
3076 1 4.3694821547085514e+00 6.0534137023860497e+00 5.9477063774358756e+00 0 -1 0
4528 1 5.8210741795283658e+00 4.1709999669500588e+00 3.2191086318121105e+00 0 0 1
1955 1 2.5191760391901750e+00 1.9046574955688624e+00 4.8232868935879916e+00 0 1 0
930 1 5.0569273407100495e+00 6.8837481005438530e+00 7.2517430473242861e+00 0 0 0
2038 1 6.6788792217823154e+00 5.9865275127736783e+00 4.1073737757463249e+00 0 0 0
349 1 1.0275308820420443e+00 3.4477527710408178e+00 3.6332074639628953e+00 0 0 0
180 1 7.4139923647040662e-01 4.1803669411078106e+00 4.2551118902761216e+00 0 0 0
2229 1 2.9756660197653786e+00 1.7848128973426143e+00 9.3252781362555979e+00 0 1 0
2789 1 5.0727364714516625e+00 1.9953472870304119e+00 1.6331092221981236e+00 0 0 1
409 1 1.0108779325816410e+00 5.3378383884704279e+00 5.8173748433298185e+00 0 0 0
4792 1 6.3928777223433606e+00 2.5828983882014676e+00 6.8307765943949192e+00 1 0 0
5875 1 6.8107931651627966e+00 7.6195473272161002e-02 3.6281032651495537e-01 0 1 1
333 1 2.8506606336874056e+00 5.5795832757532438e+00 8.6686579366940606e+00 0 0 0
308 1 5.3312720980404826e+00 2.4199097938807839e+00 7.6277667816171535e-01 0 0 0
54 1 3.7938238304663092e+00 5.4413741108276401e+00 1.6976777455104347e-01 0 0 0
368 1 1.2025486328260981e+00 5.0389985598972924e+00 4.5759042664437857e+00 0 0 0
476 1 3.5616809311725244e+00 5.6308363878972552e+00 6.2576326736467536e+00 0 0 0
1865 1 2.9375309050126326e+00 3.4263975584154096e+00 1.0227665193327320e+01 0 0 0
1849 1 1.9839595579245617e+00 5.7849505590737964e+00 6.5449459006721735e+00 0 0 0
1711 1 4.3862724489199909e+00 7.8059489794513298e-02 8.6796216352332483e+00 0 1 0
626 1 3.9602553739422044e+00 1.8477489234872539e+00 7.6119292190598902e+00 0 0 0
4878 1 1.6193278538238289e+00 1.5840971550742189e+00 7.2440667709036113e+00 1 1 0
343 1 5.1026352996944038e+00 4.2686805819251408e+00 7.9394754342484202e+00 0 0 0
300 1 2.3860503721031727e+00 5.7810210698658473e+00 9.9214750171297208e+00 0 0 0
3063 1 5.0958787502784055e+00 3.2163235007192843e+00 2.7021703080791634e-04 0 0 0
489 1 3.2219373550240666e+00 6.1230823600927309e+00 2.0259695183347075e+00 0 0 0
1579 1 9.2911320512092999e-01 6.0699158002008735e+00 1.1851155023149143e-01 0 0 0
1969 1 1.0992855157295813e+00 5.2836624334779159e-01 2.2428723718280632e+00 0 1 0
801 1 4.6151156149663777e+00 1.1917829373483537e+00 9.9750491676717523e+00 0 0 0
408 1 3.2266619911077212e+00 4.9192152668246347e+00 7.9471785097956351e+00 0 0 0
1510 1 3.0262284591320774e+00 5.2988258162737454e+00 8.6379738595952238e-01 0 0 1
614 1 3.9830377221406432e+00 2.0248917215072404e+00 9.5949024196124046e+00 0 0 0
5027 1 1.0690721120495483e+00 4.8622385381378201e+00 6.7236314314873038e+00 1 1 0
1594 1 8.2383910647772540e-01 5.7762827409147501e+00 1.2329479118937363e+00 0 0 0
238 1 6.4214100426494944e+00 5.8494393584229618e+00 7.1039707079235956e+00 0 0 0
3151 1 5.8091749855380668e+00 2.5908503921403923e+00 7.8290269749814190e+00 0 0 0
4790 1 2.3651367728749911e-02 2.3606968723592803e-01 5.7522194584667439e+00 1 1 0
1602 1 3.3092920704221949e+00 1.3518658754690327e-01 4.2495194037002104e+00 0 1 0
5009 1 2.9685240339835009e-02 3.5255625282930342e-01 6.7353854737400116e+00 1 1 0
2224 1 1.5404326181740049e+00 6.3831852564618705e+00 5.8403104927757221e+00 0 1 0
4987 1 5.1073089478108242e+00 2.8567131429506936e+00 4.8178816213539664e+00 0 1 0
1436 1 1.6109090719559857e-01 3.2706841617758395e+00 3.0070429379466788e+00 0 0 1
3260 1 1.5848992242098212e-01 6.1142356978047081e+00 9.1893686167205946e+00 1 0 0