LAMMPS (2 Aug 2023)
###%***************************************************************************%
###%                                                                          *%
###%    Script to run Step 1 of the Cleaving Method with Walls                *%
###%                                                                          *%
###%***************************************************************************%
###%                                                                          *%
###%    Based on:                                                             *%
###%    R. Davidchack, B. Laird, J. Chem. Phys., 118:7651-7657 (2003)         *%
###%                                                                          *%
###%   ~~~~~~~~~~~~~~~~~~~~~~~~~~~~~~~~~~~~~~~~~~~~~~~~~~~~~~~~~~~~~~         *%
###%                                                                          *%
###%    Created by:                                                           *%
###%    Nicodemo Di Pasquale                                                  *%
###%    Department of Mathematics                                             *%
###%    University of Leicester                                               *%
###%    24 March 2018                                                         *%
###%                                                                          *%
###%***************************************************************************%


units		lj
atom_style	atomic

boundary p p p
read_data inputStep3.lmp
Reading data file ...
  orthogonal box = (0 0 0) to (5.5112433 5.7274521 32.399362)
  1 by 1 by 4 MPI processor grid
  reading atoms ...
  2160 atoms
  reading velocities ...
  2160 velocities
  read_data CPU = 0.008 seconds

mass * 1.0


group crys type 1 4 5 6
1080 atoms in group crys
group liquid type  2 3 7 8
1080 atoms in group liquid

group real type 1 2 3 4
1080 atoms in group real
group dupl type 5 6 7 8
1080 atoms in group dupl

group realliq type 2 3
540 atoms in group realliq
group realcry type 1 4
540 atoms in group realcry

# ---------------------------- Define variables --------------------------------

variable clwall1 equal 8.099840380596101
variable clwall2 equal 24.299521141788304
variable backloop equal 0
variable  sigma   equal  1.0
variable  eps     equal  1.0
variable  delta   equal  0.25
variable  siglj   equal  1.0
variable  epslj   equal  1.0
variable cnt equal 1
variable lam file lambda.dat
variable lambda equal ${lam}
variable lambda equal 0.0000
variable delam equal 0.005
variable zwf equal 0.62
variable  crw     equal  2.0^(1.0/6.0)
variable  rhoc    equal  0.945
variable  cut1    equal  2.3
variable  cut2    equal  2.5
variable  eqnts   equal  0
variable  nts     equal  1000
variable  ts      equal  0.005
variable thermoSteps equal 5000
variable dumpfreq equal 20000
variable Nevery equal 2
variable Nrepeat equal 500
variable Nfreq equal 1000
variable  nloop   equal  2000
variable Tsyst equal 0.617
variable  Tdump   equal  0.0748
variable restartfreq equal 200000

# ------------------------- Derivate variables ---------------------------------
#

variable minlam equal 1-${lambda}
variable minlam equal 1-0
variable  rw    equal  ${sigma}*${crw}
variable  rw    equal  1*${crw}
variable  rw    equal  1*1.12246204830937
variable  cutoff1 equal  ${siglj}*${cut1}
variable  cutoff1 equal  1*${cut1}
variable  cutoff1 equal  1*2.3
variable  cutoff2 equal  ${siglj}*${cut2}
variable  cutoff2 equal  1*${cut2}
variable  cutoff2 equal  1*2.5

# ---------------------------- Neighbours Exclusion ----------------------------

neigh_modify every 1 delay 0 check yes exclude type 1 7 exclude type 1 8 exclude type 2 5 exclude type 2 6 exclude type 3 5 exclude type 3 6 exclude type 4 7 exclude type 4 8 exclude type 5 6 exclude type 5 7 exclude type 5 8  exclude type 6 7  exclude type 6 8  exclude type 7 8

# ----------------------------- Interactions -----------------------------------


#### normal interactions

# self
pair_style lj/BGNlcleavs3 ${cutoff1} ${cutoff2} 1.0 1.0 1.0
pair_style lj/BGNlcleavs3 2.3 ${cutoff2} 1.0 1.0 1.0
pair_style lj/BGNlcleavs3 2.3 2.5 1.0 1.0 1.0
pair_coeff   1 1  ${epslj} ${siglj}   1.0 1.0
pair_coeff   1 1  1 ${siglj}   1.0 1.0
pair_coeff   1 1  1 1   1.0 1.0
pair_coeff   2 2  ${epslj} ${siglj}   1.0 1.0
pair_coeff   2 2  1 ${siglj}   1.0 1.0
pair_coeff   2 2  1 1   1.0 1.0
pair_coeff   3 3  ${epslj} ${siglj}   1.0 1.0
pair_coeff   3 3  1 ${siglj}   1.0 1.0
pair_coeff   3 3  1 1   1.0 1.0
pair_coeff   4 4  ${epslj} ${siglj}   1.0 1.0
pair_coeff   4 4  1 ${siglj}   1.0 1.0
pair_coeff   4 4  1 1   1.0 1.0
pair_coeff   5 5  ${epslj} ${siglj}   0.0 1.0
pair_coeff   5 5  1 ${siglj}   0.0 1.0
pair_coeff   5 5  1 1   0.0 1.0
pair_coeff   6 6  ${epslj} ${siglj}   0.0 1.0
pair_coeff   6 6  1 ${siglj}   0.0 1.0
pair_coeff   6 6  1 1   0.0 1.0
pair_coeff   7 7  ${epslj} ${siglj}   0.0 1.0
pair_coeff   7 7  1 ${siglj}   0.0 1.0
pair_coeff   7 7  1 1   0.0 1.0
pair_coeff   8 8  ${epslj} ${siglj}   0.0 1.0
pair_coeff   8 8  1 ${siglj}   0.0 1.0
pair_coeff   8 8  1 1   0.0 1.0

# single
pair_coeff   1 4  ${epslj} ${siglj}   1.0 1.0
pair_coeff   1 4  1 ${siglj}   1.0 1.0
pair_coeff   1 4  1 1   1.0 1.0
pair_coeff   2 3  ${epslj} ${siglj}   1.0 1.0
pair_coeff   2 3  1 ${siglj}   1.0 1.0
pair_coeff   2 3  1 1   1.0 1.0


neighbor     0.3 bin
atom_modify  sort 0 0.0


# ------------------------- fix atoms  -------------------------------

velocity real zero linear
velocity real zero angular

# ------------------------- Define compute style -------------------------------


compute 1 all cleavpairs lj/BGNlcleavs3 norm 4 z


# ------------- Output thermo information and averaged variables ---------------



fix f2 all wallforce ${eps} ${sigma} ${zwf} ${delta} ${rw} ${clwall1} file fcc111-T1-walls.lmp
fix f2 all wallforce 1 ${sigma} ${zwf} ${delta} ${rw} ${clwall1} file fcc111-T1-walls.lmp
fix f2 all wallforce 1 1 ${zwf} ${delta} ${rw} ${clwall1} file fcc111-T1-walls.lmp
fix f2 all wallforce 1 1 0.62 ${delta} ${rw} ${clwall1} file fcc111-T1-walls.lmp
fix f2 all wallforce 1 1 0.62 0.25 ${rw} ${clwall1} file fcc111-T1-walls.lmp
fix f2 all wallforce 1 1 0.62 0.25 1.12246204830937 ${clwall1} file fcc111-T1-walls.lmp
fix f2 all wallforce 1 1 0.62 0.25 1.12246204830937 8.0998403805961 file fcc111-T1-walls.lmp
fix f3 all wallforce ${eps} ${sigma} ${zwf} ${delta} ${rw} ${clwall2} file fcc111-T1-walls.lmp
fix f3 all wallforce 1 ${sigma} ${zwf} ${delta} ${rw} ${clwall2} file fcc111-T1-walls.lmp
fix f3 all wallforce 1 1 ${zwf} ${delta} ${rw} ${clwall2} file fcc111-T1-walls.lmp
fix f3 all wallforce 1 1 0.62 ${delta} ${rw} ${clwall2} file fcc111-T1-walls.lmp
fix f3 all wallforce 1 1 0.62 0.25 ${rw} ${clwall2} file fcc111-T1-walls.lmp
fix f3 all wallforce 1 1 0.62 0.25 1.12246204830937 ${clwall2} file fcc111-T1-walls.lmp
fix f3 all wallforce 1 1 0.62 0.25 1.12246204830937 24.2995211417883 file fcc111-T1-walls.lmp
variable totW   equal "f_f2 + f_f3"


fix  f4  real nvt temp ${Tsyst} ${Tsyst} ${Tdump}
fix  f4  real nvt temp 0.617 ${Tsyst} ${Tdump}
fix  f4  real nvt temp 0.617 0.617 ${Tdump}
fix  f4  real nvt temp 0.617 0.617 0.0748

compute cc1 real displace/atom_cleav
fix Nf1  dupl move/dupl c_cc1[*]

compute Treal real temp
compute PE real pe/atom
compute preal real reduce sum c_PE
variable PER equal c_preal

compute Sl realliq stress/atom NULL
compute Sc realcry stress/atom NULL
compute RSl realliq reduce sum c_Sl[1] c_Sl[2] c_Sl[3]
compute RSc realcry reduce sum c_Sc[1] c_Sc[2] c_Sc[3]

variable volR equal vol/2

variable pressL equal -(c_RSl[1]+c_RSl[2]+c_RSl[3])/(3*${volR})
variable pressL equal -(c_RSl[1]+c_RSl[2]+c_RSl[3])/(3*511.349109021634)
variable pressC equal -(c_RSc[1]+c_RSc[2]+c_RSc[3])/(3*${volR})
variable pressC equal -(c_RSc[1]+c_RSc[2]+c_RSc[3])/(3*511.349109021634)
variable pressToT equal -(c_RSc[1]+c_RSc[2]+c_RSc[3]+c_RSl[1]+c_RSl[2]+c_RSl[3])/(3*vol)

thermo_style custom step c_Treal v_PER v_pressC v_pressL v_pressToT
thermo   ${thermoSteps}
thermo   5000
timestep ${ts}
timestep 0.005


# -------------------------- Zero linear momentum ------------------------------

fix    f5  real momentum 1000 linear 1 1 1

# -------------------------- Forward changing interactions lambda ----------------------

label here
include    in.loop/loop
###%***************************************************************************%
###%    Created by:                                                           *%
###%    Nicodemo Di Pasquale                                                  *%
###%    Department of Mathematics                                             *%
###%    University of Leicester                                               *%
###%    24 March 2018                                                         *%
###%***************************************************************************%



variable lambda equal ${lam}
variable lambda equal 0.0000
variable minlam equal 1-${lam}
variable minlam equal 1-0.0000


print       "Forward Interaction ${cnt}: ${lambda} ${lam}"
Forward Interaction 1: 0 0.0000

# -------------------- Interactions --------------------------------------------

### Across cleaving plane interactions same phase

pair_coeff   1 5  ${epslj} ${siglj}  ${minlam} -1.0
pair_coeff   1 5  1 ${siglj}  ${minlam} -1.0
pair_coeff   1 5  1 1  ${minlam} -1.0
pair_coeff   1 5  1 1  1 -1.0
pair_coeff   1 6  ${epslj} ${siglj}  ${minlam} -1.0
pair_coeff   1 6  1 ${siglj}  ${minlam} -1.0
pair_coeff   1 6  1 1  ${minlam} -1.0
pair_coeff   1 6  1 1  1 -1.0
pair_coeff   2 7  ${epslj} ${siglj}  ${minlam} -1.0
pair_coeff   2 7  1 ${siglj}  ${minlam} -1.0
pair_coeff   2 7  1 1  ${minlam} -1.0
pair_coeff   2 7  1 1  1 -1.0
pair_coeff   2 8  ${epslj} ${siglj}  ${minlam} -1.0
pair_coeff   2 8  1 ${siglj}  ${minlam} -1.0
pair_coeff   2 8  1 1  ${minlam} -1.0
pair_coeff   2 8  1 1  1 -1.0
pair_coeff   3 7  ${epslj} ${siglj}  ${minlam} -1.0
pair_coeff   3 7  1 ${siglj}  ${minlam} -1.0
pair_coeff   3 7  1 1  ${minlam} -1.0
pair_coeff   3 7  1 1  1 -1.0
pair_coeff   3 8  ${epslj} ${siglj}  ${minlam} -1.0
pair_coeff   3 8  1 ${siglj}  ${minlam} -1.0
pair_coeff   3 8  1 1  ${minlam} -1.0
pair_coeff   3 8  1 1  1 -1.0
pair_coeff   4 5  ${epslj} ${siglj}  ${minlam} -1.0
pair_coeff   4 5  1 ${siglj}  ${minlam} -1.0
pair_coeff   4 5  1 1  ${minlam} -1.0
pair_coeff   4 5  1 1  1 -1.0
pair_coeff   4 6  ${epslj} ${siglj}  ${minlam} -1.0
pair_coeff   4 6  1 ${siglj}  ${minlam} -1.0
pair_coeff   4 6  1 1  ${minlam} -1.0
pair_coeff   4 6  1 1  1 -1.0

### Across cleaving plane interactions different phases

pair_coeff   1 2  ${epslj} ${siglj}  ${lambda} 1.0
pair_coeff   1 2  1 ${siglj}  ${lambda} 1.0
pair_coeff   1 2  1 1  ${lambda} 1.0
pair_coeff   1 2  1 1  0 1.0
pair_coeff   1 3  ${epslj} ${siglj}  ${lambda} 1.0
pair_coeff   1 3  1 ${siglj}  ${lambda} 1.0
pair_coeff   1 3  1 1  ${lambda} 1.0
pair_coeff   1 3  1 1  0 1.0
pair_coeff   2 4  ${epslj} ${siglj}  ${lambda} 1.0
pair_coeff   2 4  1 ${siglj}  ${lambda} 1.0
pair_coeff   2 4  1 1  ${lambda} 1.0
pair_coeff   2 4  1 1  0 1.0
pair_coeff   3 4  ${epslj} ${siglj}  ${lambda} 1.0
pair_coeff   3 4  1 ${siglj}  ${lambda} 1.0
pair_coeff   3 4  1 1  ${lambda} 1.0
pair_coeff   3 4  1 1  0 1.0

#--------------------------------------------------------------------

run   ${eqnts}
run   0
Generated 14 of 28 mixed pair_coeff terms from geometric mixing rule
Neighbor list info ...
  update: every = 1 steps, delay = 0 steps, check = yes
  max neighbors/atom: 2000, page size: 100000
  master list distance cutoff = 2.8
  ghost atom cutoff = 2.8
  binsize = 1.4, bins = 4 5 24
  1 neighbor lists, perpetual/occasional/extra = 1 0 0
  (1) pair lj/BGNlcleavs3, perpetual
      attributes: half, newton on
      pair build: half/bin/atomonly/newton
      stencil: half/bin/3d
      bin: standard
Per MPI rank memory allocation (min/avg/max) = 5.45 | 5.451 | 5.451 Mbytes
   Step        c_Treal         v_PER         v_pressC       v_pressL      v_pressToT  
         0   0.6197743     -7151.6762      4.4206225      4.3562079      4.3884152    
Loop time of 9.895e-07 on 4 procs for 0 steps with 2160 atoms

75.8% CPU use with 4 MPI tasks x no OpenMP threads

MPI task timing breakdown:
Section |  min time  |  avg time  |  max time  |%varavg| %total
---------------------------------------------------------------
Pair    | 0          | 0          | 0          |   0.0 |  0.00
Neigh   | 0          | 0          | 0          |   0.0 |  0.00
Comm    | 0          | 0          | 0          |   0.0 |  0.00
Output  | 0          | 0          | 0          |   0.0 |  0.00
Modify  | 0          | 0          | 0          |   0.0 |  0.00
Other   |            | 9.895e-07  |            |       |100.00

Nlocal:            540 ave         540 max         540 min
Histogram: 4 0 0 0 0 0 0 0 0 0
Nghost:           3078 ave        3080 max        3076 min
Histogram: 2 0 0 0 0 0 0 0 0 2
Neighs:          24237 ave       26022 max       22526 min
Histogram: 2 0 0 0 0 0 0 0 0 2

Total # of neighbors = 96948
Ave neighs/atom = 44.883333
Neighbor list builds = 0
Dangerous builds = 0

fix   fl6 all ave/time ${Nevery} ${Nrepeat} ${Nfreq} v_lambda file dat/lambda.${cnt}.dat
fix   fl6 all ave/time 2 ${Nrepeat} ${Nfreq} v_lambda file dat/lambda.${cnt}.dat
fix   fl6 all ave/time 2 500 ${Nfreq} v_lambda file dat/lambda.${cnt}.dat
fix   fl6 all ave/time 2 500 1000 v_lambda file dat/lambda.${cnt}.dat
fix   fl6 all ave/time 2 500 1000 v_lambda file dat/lambda.1.dat
fix   f6 all ave/time ${Nevery} ${Nrepeat} ${Nfreq}  c_1[*] file dat/inters3.${cnt}.dat mode vector
fix   f6 all ave/time 2 ${Nrepeat} ${Nfreq}  c_1[*] file dat/inters3.${cnt}.dat mode vector
fix   f6 all ave/time 2 500 ${Nfreq}  c_1[*] file dat/inters3.${cnt}.dat mode vector
fix   f6 all ave/time 2 500 1000  c_1[*] file dat/inters3.${cnt}.dat mode vector
fix   f6 all ave/time 2 500 1000  c_1[*] file dat/inters3.1.dat mode vector

run   ${nts}
run   1000
Generated 14 of 28 mixed pair_coeff terms from geometric mixing rule
Per MPI rank memory allocation (min/avg/max) = 7.075 | 7.076 | 7.076 Mbytes
   Step        c_Treal         v_PER         v_pressC       v_pressL      v_pressToT  
         0   0.6197743     -7151.6762      4.4206225      4.3562079      4.3884152    
      1000   0.62525444    -7135.968       4.4236214      4.4989874      4.4613044    
Loop time of 1.29577 on 4 procs for 1000 steps with 2160 atoms

Performance: 333393.253 tau/day, 771.744 timesteps/s, 1.667 Matom-step/s
99.7% CPU use with 4 MPI tasks x no OpenMP threads

MPI task timing breakdown:
Section |  min time  |  avg time  |  max time  |%varavg| %total
---------------------------------------------------------------
Pair    | 0.27897    | 0.30068    | 0.32142    |   3.7 | 23.20
Neigh   | 0.46569    | 0.48394    | 0.50776    |   2.6 | 37.35
Comm    | 0.038173   | 0.081107   | 0.12129    |  13.3 |  6.26
Output  | 0.00012896 | 0.00014679 | 0.00015296 |   0.0 |  0.01
Modify  | 0.42473    | 0.42584    | 0.42676    |   0.1 | 32.86
Other   |            | 0.004053   |            |       |  0.31

Nlocal:            540 ave         540 max         540 min
Histogram: 4 0 0 0 0 0 0 0 0 0
Nghost:           3039 ave        3042 max        3036 min
Histogram: 2 0 0 0 0 0 0 0 0 2
Neighs:        24242.8 ave       26080 max       22492 min
Histogram: 2 0 0 0 0 0 0 0 0 2

Total # of neighbors = 96971
Ave neighs/atom = 44.893981
Neighbor list builds = 490
Dangerous builds = 290
# --------------------------- Unfix --------------------------------------------

unfix fl6
unfix f6


#%*****************************************************************************%
variable    cntt equal ${cnt}+1
variable    cntt equal 1+1
variable    cnt  equal ${cntt}
variable    cnt  equal 2
next lam
jump SELF here
include    in.loop/loop
###%***************************************************************************%
###%    Created by:                                                           *%
###%    Nicodemo Di Pasquale                                                  *%
###%    Department of Mathematics                                             *%
###%    University of Leicester                                               *%
###%    24 March 2018                                                         *%
###%***************************************************************************%



variable lambda equal ${lam}
variable lambda equal 0.0010
variable minlam equal 1-${lam}
variable minlam equal 1-0.0010


print       "Forward Interaction ${cnt}: ${lambda} ${lam}"
Forward Interaction 2: 0.001 0.0010

# -------------------- Interactions --------------------------------------------

### Across cleaving plane interactions same phase

pair_coeff   1 5  ${epslj} ${siglj}  ${minlam} -1.0
pair_coeff   1 5  1 ${siglj}  ${minlam} -1.0
pair_coeff   1 5  1 1  ${minlam} -1.0
pair_coeff   1 5  1 1  0.999 -1.0
pair_coeff   1 6  ${epslj} ${siglj}  ${minlam} -1.0
pair_coeff   1 6  1 ${siglj}  ${minlam} -1.0
pair_coeff   1 6  1 1  ${minlam} -1.0
pair_coeff   1 6  1 1  0.999 -1.0
pair_coeff   2 7  ${epslj} ${siglj}  ${minlam} -1.0
pair_coeff   2 7  1 ${siglj}  ${minlam} -1.0
pair_coeff   2 7  1 1  ${minlam} -1.0
pair_coeff   2 7  1 1  0.999 -1.0
pair_coeff   2 8  ${epslj} ${siglj}  ${minlam} -1.0
pair_coeff   2 8  1 ${siglj}  ${minlam} -1.0
pair_coeff   2 8  1 1  ${minlam} -1.0
pair_coeff   2 8  1 1  0.999 -1.0
pair_coeff   3 7  ${epslj} ${siglj}  ${minlam} -1.0
pair_coeff   3 7  1 ${siglj}  ${minlam} -1.0
pair_coeff   3 7  1 1  ${minlam} -1.0
pair_coeff   3 7  1 1  0.999 -1.0
pair_coeff   3 8  ${epslj} ${siglj}  ${minlam} -1.0
pair_coeff   3 8  1 ${siglj}  ${minlam} -1.0
pair_coeff   3 8  1 1  ${minlam} -1.0
pair_coeff   3 8  1 1  0.999 -1.0
pair_coeff   4 5  ${epslj} ${siglj}  ${minlam} -1.0
pair_coeff   4 5  1 ${siglj}  ${minlam} -1.0
pair_coeff   4 5  1 1  ${minlam} -1.0
pair_coeff   4 5  1 1  0.999 -1.0
pair_coeff   4 6  ${epslj} ${siglj}  ${minlam} -1.0
pair_coeff   4 6  1 ${siglj}  ${minlam} -1.0
pair_coeff   4 6  1 1  ${minlam} -1.0
pair_coeff   4 6  1 1  0.999 -1.0

### Across cleaving plane interactions different phases

pair_coeff   1 2  ${epslj} ${siglj}  ${lambda} 1.0
pair_coeff   1 2  1 ${siglj}  ${lambda} 1.0
pair_coeff   1 2  1 1  ${lambda} 1.0
pair_coeff   1 2  1 1  0.001 1.0
pair_coeff   1 3  ${epslj} ${siglj}  ${lambda} 1.0
pair_coeff   1 3  1 ${siglj}  ${lambda} 1.0
pair_coeff   1 3  1 1  ${lambda} 1.0
pair_coeff   1 3  1 1  0.001 1.0
pair_coeff   2 4  ${epslj} ${siglj}  ${lambda} 1.0
pair_coeff   2 4  1 ${siglj}  ${lambda} 1.0
pair_coeff   2 4  1 1  ${lambda} 1.0
pair_coeff   2 4  1 1  0.001 1.0
pair_coeff   3 4  ${epslj} ${siglj}  ${lambda} 1.0
pair_coeff   3 4  1 ${siglj}  ${lambda} 1.0
pair_coeff   3 4  1 1  ${lambda} 1.0
pair_coeff   3 4  1 1  0.001 1.0

#--------------------------------------------------------------------

run   ${eqnts}
run   0
Generated 14 of 28 mixed pair_coeff terms from geometric mixing rule
Per MPI rank memory allocation (min/avg/max) = 7.575 | 7.576 | 7.576 Mbytes
   Step        c_Treal         v_PER         v_pressC       v_pressL      v_pressToT  
      1000   0.62525444    -7135.8464      4.4241679      4.4995358      4.4618519    
Loop time of 1.42675e-06 on 4 procs for 0 steps with 2160 atoms

87.6% CPU use with 4 MPI tasks x no OpenMP threads

MPI task timing breakdown:
Section |  min time  |  avg time  |  max time  |%varavg| %total
---------------------------------------------------------------
Pair    | 0          | 0          | 0          |   0.0 |  0.00
Neigh   | 0          | 0          | 0          |   0.0 |  0.00
Comm    | 0          | 0          | 0          |   0.0 |  0.00
Output  | 0          | 0          | 0          |   0.0 |  0.00
Modify  | 0          | 0          | 0          |   0.0 |  0.00
Other   |            | 1.427e-06  |            |       |100.00

Nlocal:            540 ave         540 max         540 min
Histogram: 4 0 0 0 0 0 0 0 0 0
Nghost:           3039 ave        3042 max        3036 min
Histogram: 2 0 0 0 0 0 0 0 0 2
Neighs:        24242.8 ave       26080 max       22492 min
Histogram: 2 0 0 0 0 0 0 0 0 2

Total # of neighbors = 96971
Ave neighs/atom = 44.893981
Neighbor list builds = 0
Dangerous builds = 0

fix   fl6 all ave/time ${Nevery} ${Nrepeat} ${Nfreq} v_lambda file dat/lambda.${cnt}.dat
fix   fl6 all ave/time 2 ${Nrepeat} ${Nfreq} v_lambda file dat/lambda.${cnt}.dat
fix   fl6 all ave/time 2 500 ${Nfreq} v_lambda file dat/lambda.${cnt}.dat
fix   fl6 all ave/time 2 500 1000 v_lambda file dat/lambda.${cnt}.dat
fix   fl6 all ave/time 2 500 1000 v_lambda file dat/lambda.2.dat
fix   f6 all ave/time ${Nevery} ${Nrepeat} ${Nfreq}  c_1[*] file dat/inters3.${cnt}.dat mode vector
fix   f6 all ave/time 2 ${Nrepeat} ${Nfreq}  c_1[*] file dat/inters3.${cnt}.dat mode vector
fix   f6 all ave/time 2 500 ${Nfreq}  c_1[*] file dat/inters3.${cnt}.dat mode vector
fix   f6 all ave/time 2 500 1000  c_1[*] file dat/inters3.${cnt}.dat mode vector
fix   f6 all ave/time 2 500 1000  c_1[*] file dat/inters3.2.dat mode vector

run   ${nts}
run   1000
Generated 14 of 28 mixed pair_coeff terms from geometric mixing rule
Per MPI rank memory allocation (min/avg/max) = 7.575 | 7.576 | 7.576 Mbytes
   Step        c_Treal         v_PER         v_pressC       v_pressL      v_pressToT  
      1000   0.62525444    -7135.8464      4.4241679      4.4995358      4.4618519    
      2000   0.62500178    -7105.921       4.4814489      4.7609367      4.6211928    
Loop time of 1.0573 on 4 procs for 1000 steps with 2160 atoms

Performance: 408587.836 tau/day, 945.805 timesteps/s, 2.043 Matom-step/s
99.8% CPU use with 4 MPI tasks x no OpenMP threads

MPI task timing breakdown:
Section |  min time  |  avg time  |  max time  |%varavg| %total
---------------------------------------------------------------
Pair    | 0.2752     | 0.30041    | 0.3247     |   4.2 | 28.41
Neigh   | 0.25273    | 0.26743    | 0.2846     |   2.4 | 25.29
Comm    | 0.027352   | 0.068633   | 0.1085     |  13.4 |  6.49
Output  | 0.00016396 | 0.00018256 | 0.00018908 |   0.0 |  0.02
Modify  | 0.41663    | 0.41712    | 0.41747    |   0.0 | 39.45
Other   |            | 0.003516   |            |       |  0.33

Nlocal:            540 ave         540 max         540 min
Histogram: 4 0 0 0 0 0 0 0 0 0
Nghost:           3052 ave        3054 max        3050 min
Histogram: 2 0 0 0 0 0 0 0 0 2
Neighs:        24244.5 ave       26081 max       22495 min
Histogram: 2 0 0 0 0 0 0 0 0 2

Total # of neighbors = 96978
Ave neighs/atom = 44.897222
Neighbor list builds = 272
Dangerous builds = 71
# --------------------------- Unfix --------------------------------------------

unfix fl6
unfix f6


#%*****************************************************************************%
variable    cntt equal ${cnt}+1
variable    cntt equal 2+1
variable    cnt  equal ${cntt}
variable    cnt  equal 3
next lam
jump SELF here
include    in.loop/loop
###%***************************************************************************%
###%    Created by:                                                           *%
###%    Nicodemo Di Pasquale                                                  *%
###%    Department of Mathematics                                             *%
###%    University of Leicester                                               *%
###%    24 March 2018                                                         *%
###%***************************************************************************%



variable lambda equal ${lam}
variable lambda equal 0.0030
variable minlam equal 1-${lam}
variable minlam equal 1-0.0030


print       "Forward Interaction ${cnt}: ${lambda} ${lam}"
Forward Interaction 3: 0.003 0.0030

# -------------------- Interactions --------------------------------------------

### Across cleaving plane interactions same phase

pair_coeff   1 5  ${epslj} ${siglj}  ${minlam} -1.0
pair_coeff   1 5  1 ${siglj}  ${minlam} -1.0
pair_coeff   1 5  1 1  ${minlam} -1.0
pair_coeff   1 5  1 1  0.997 -1.0
pair_coeff   1 6  ${epslj} ${siglj}  ${minlam} -1.0
pair_coeff   1 6  1 ${siglj}  ${minlam} -1.0
pair_coeff   1 6  1 1  ${minlam} -1.0
pair_coeff   1 6  1 1  0.997 -1.0
pair_coeff   2 7  ${epslj} ${siglj}  ${minlam} -1.0
pair_coeff   2 7  1 ${siglj}  ${minlam} -1.0
pair_coeff   2 7  1 1  ${minlam} -1.0
pair_coeff   2 7  1 1  0.997 -1.0
pair_coeff   2 8  ${epslj} ${siglj}  ${minlam} -1.0
pair_coeff   2 8  1 ${siglj}  ${minlam} -1.0
pair_coeff   2 8  1 1  ${minlam} -1.0
pair_coeff   2 8  1 1  0.997 -1.0
pair_coeff   3 7  ${epslj} ${siglj}  ${minlam} -1.0
pair_coeff   3 7  1 ${siglj}  ${minlam} -1.0
pair_coeff   3 7  1 1  ${minlam} -1.0
pair_coeff   3 7  1 1  0.997 -1.0
pair_coeff   3 8  ${epslj} ${siglj}  ${minlam} -1.0
pair_coeff   3 8  1 ${siglj}  ${minlam} -1.0
pair_coeff   3 8  1 1  ${minlam} -1.0
pair_coeff   3 8  1 1  0.997 -1.0
pair_coeff   4 5  ${epslj} ${siglj}  ${minlam} -1.0
pair_coeff   4 5  1 ${siglj}  ${minlam} -1.0
pair_coeff   4 5  1 1  ${minlam} -1.0
pair_coeff   4 5  1 1  0.997 -1.0
pair_coeff   4 6  ${epslj} ${siglj}  ${minlam} -1.0
pair_coeff   4 6  1 ${siglj}  ${minlam} -1.0
pair_coeff   4 6  1 1  ${minlam} -1.0
pair_coeff   4 6  1 1  0.997 -1.0

### Across cleaving plane interactions different phases

pair_coeff   1 2  ${epslj} ${siglj}  ${lambda} 1.0
pair_coeff   1 2  1 ${siglj}  ${lambda} 1.0
pair_coeff   1 2  1 1  ${lambda} 1.0
pair_coeff   1 2  1 1  0.003 1.0
pair_coeff   1 3  ${epslj} ${siglj}  ${lambda} 1.0
pair_coeff   1 3  1 ${siglj}  ${lambda} 1.0
pair_coeff   1 3  1 1  ${lambda} 1.0
pair_coeff   1 3  1 1  0.003 1.0
pair_coeff   2 4  ${epslj} ${siglj}  ${lambda} 1.0
pair_coeff   2 4  1 ${siglj}  ${lambda} 1.0
pair_coeff   2 4  1 1  ${lambda} 1.0
pair_coeff   2 4  1 1  0.003 1.0
pair_coeff   3 4  ${epslj} ${siglj}  ${lambda} 1.0
pair_coeff   3 4  1 ${siglj}  ${lambda} 1.0
pair_coeff   3 4  1 1  ${lambda} 1.0
pair_coeff   3 4  1 1  0.003 1.0

#--------------------------------------------------------------------

run   ${eqnts}
run   0
Generated 14 of 28 mixed pair_coeff terms from geometric mixing rule
Per MPI rank memory allocation (min/avg/max) = 7.575 | 7.576 | 7.576 Mbytes
   Step        c_Treal         v_PER         v_pressC       v_pressL      v_pressToT  
      2000   0.62500178    -7105.3284      4.4840057      4.763545       4.6237754    
Loop time of 1.18725e-06 on 4 procs for 0 steps with 2160 atoms

84.2% CPU use with 4 MPI tasks x no OpenMP threads

MPI task timing breakdown:
Section |  min time  |  avg time  |  max time  |%varavg| %total
---------------------------------------------------------------
Pair    | 0          | 0          | 0          |   0.0 |  0.00
Neigh   | 0          | 0          | 0          |   0.0 |  0.00
Comm    | 0          | 0          | 0          |   0.0 |  0.00
Output  | 0          | 0          | 0          |   0.0 |  0.00
Modify  | 0          | 0          | 0          |   0.0 |  0.00
Other   |            | 1.187e-06  |            |       |100.00

Nlocal:            540 ave         540 max         540 min
Histogram: 4 0 0 0 0 0 0 0 0 0
Nghost:           3052 ave        3054 max        3050 min
Histogram: 2 0 0 0 0 0 0 0 0 2
Neighs:        24244.5 ave       26081 max       22495 min
Histogram: 2 0 0 0 0 0 0 0 0 2

Total # of neighbors = 96978
Ave neighs/atom = 44.897222
Neighbor list builds = 0
Dangerous builds = 0

fix   fl6 all ave/time ${Nevery} ${Nrepeat} ${Nfreq} v_lambda file dat/lambda.${cnt}.dat
fix   fl6 all ave/time 2 ${Nrepeat} ${Nfreq} v_lambda file dat/lambda.${cnt}.dat
fix   fl6 all ave/time 2 500 ${Nfreq} v_lambda file dat/lambda.${cnt}.dat
fix   fl6 all ave/time 2 500 1000 v_lambda file dat/lambda.${cnt}.dat
fix   fl6 all ave/time 2 500 1000 v_lambda file dat/lambda.3.dat
fix   f6 all ave/time ${Nevery} ${Nrepeat} ${Nfreq}  c_1[*] file dat/inters3.${cnt}.dat mode vector
fix   f6 all ave/time 2 ${Nrepeat} ${Nfreq}  c_1[*] file dat/inters3.${cnt}.dat mode vector
fix   f6 all ave/time 2 500 ${Nfreq}  c_1[*] file dat/inters3.${cnt}.dat mode vector
fix   f6 all ave/time 2 500 1000  c_1[*] file dat/inters3.${cnt}.dat mode vector
fix   f6 all ave/time 2 500 1000  c_1[*] file dat/inters3.3.dat mode vector

run   ${nts}
run   1000
Generated 14 of 28 mixed pair_coeff terms from geometric mixing rule
Per MPI rank memory allocation (min/avg/max) = 7.575 | 7.576 | 7.576 Mbytes
   Step        c_Treal         v_PER         v_pressC       v_pressL      v_pressToT  
      2000   0.62500178    -7105.3284      4.4840057      4.763545       4.6237754    
      3000   0.62046902    -7141.5025      4.4266688      4.4477482      4.4372085    
Loop time of 1.22771 on 4 procs for 1000 steps with 2160 atoms

Performance: 351874.291 tau/day, 814.524 timesteps/s, 1.759 Matom-step/s
99.8% CPU use with 4 MPI tasks x no OpenMP threads

MPI task timing breakdown:
Section |  min time  |  avg time  |  max time  |%varavg| %total
---------------------------------------------------------------
Pair    | 0.27735    | 0.30114    | 0.3264     |   4.3 | 24.53
Neigh   | 0.39169    | 0.41068    | 0.43717    |   3.0 | 33.45
Comm    | 0.034968   | 0.086472   | 0.12878    |  14.3 |  7.04
Output  | 0.00012604 | 0.00014542 | 0.00015208 |   0.0 |  0.01
Modify  | 0.42471    | 0.42519    | 0.42547    |   0.0 | 34.63
Other   |            | 0.004086   |            |       |  0.33

Nlocal:            540 ave         540 max         540 min
Histogram: 4 0 0 0 0 0 0 0 0 0
Nghost:           3050 ave        3050 max        3050 min
Histogram: 4 0 0 0 0 0 0 0 0 0
Neighs:          24239 ave       26163 max       22438 min
Histogram: 2 0 0 0 0 0 0 0 1 1

Total # of neighbors = 96956
Ave neighs/atom = 44.887037
Neighbor list builds = 417
Dangerous builds = 190
# --------------------------- Unfix --------------------------------------------

unfix fl6
unfix f6


#%*****************************************************************************%
variable    cntt equal ${cnt}+1
variable    cntt equal 3+1
variable    cnt  equal ${cntt}
variable    cnt  equal 4
next lam
jump SELF here
include    in.loop/loop
###%***************************************************************************%
###%    Created by:                                                           *%
###%    Nicodemo Di Pasquale                                                  *%
###%    Department of Mathematics                                             *%
###%    University of Leicester                                               *%
###%    24 March 2018                                                         *%
###%***************************************************************************%



variable lambda equal ${lam}
variable lambda equal 0.0070
variable minlam equal 1-${lam}
variable minlam equal 1-0.0070


print       "Forward Interaction ${cnt}: ${lambda} ${lam}"
Forward Interaction 4: 0.007 0.0070

# -------------------- Interactions --------------------------------------------

### Across cleaving plane interactions same phase

pair_coeff   1 5  ${epslj} ${siglj}  ${minlam} -1.0
pair_coeff   1 5  1 ${siglj}  ${minlam} -1.0
pair_coeff   1 5  1 1  ${minlam} -1.0
pair_coeff   1 5  1 1  0.993 -1.0
pair_coeff   1 6  ${epslj} ${siglj}  ${minlam} -1.0
pair_coeff   1 6  1 ${siglj}  ${minlam} -1.0
pair_coeff   1 6  1 1  ${minlam} -1.0
pair_coeff   1 6  1 1  0.993 -1.0
pair_coeff   2 7  ${epslj} ${siglj}  ${minlam} -1.0
pair_coeff   2 7  1 ${siglj}  ${minlam} -1.0
pair_coeff   2 7  1 1  ${minlam} -1.0
pair_coeff   2 7  1 1  0.993 -1.0
pair_coeff   2 8  ${epslj} ${siglj}  ${minlam} -1.0
pair_coeff   2 8  1 ${siglj}  ${minlam} -1.0
pair_coeff   2 8  1 1  ${minlam} -1.0
pair_coeff   2 8  1 1  0.993 -1.0
pair_coeff   3 7  ${epslj} ${siglj}  ${minlam} -1.0
pair_coeff   3 7  1 ${siglj}  ${minlam} -1.0
pair_coeff   3 7  1 1  ${minlam} -1.0
pair_coeff   3 7  1 1  0.993 -1.0
pair_coeff   3 8  ${epslj} ${siglj}  ${minlam} -1.0
pair_coeff   3 8  1 ${siglj}  ${minlam} -1.0
pair_coeff   3 8  1 1  ${minlam} -1.0
pair_coeff   3 8  1 1  0.993 -1.0
pair_coeff   4 5  ${epslj} ${siglj}  ${minlam} -1.0
pair_coeff   4 5  1 ${siglj}  ${minlam} -1.0
pair_coeff   4 5  1 1  ${minlam} -1.0
pair_coeff   4 5  1 1  0.993 -1.0
pair_coeff   4 6  ${epslj} ${siglj}  ${minlam} -1.0
pair_coeff   4 6  1 ${siglj}  ${minlam} -1.0
pair_coeff   4 6  1 1  ${minlam} -1.0
pair_coeff   4 6  1 1  0.993 -1.0

### Across cleaving plane interactions different phases

pair_coeff   1 2  ${epslj} ${siglj}  ${lambda} 1.0
pair_coeff   1 2  1 ${siglj}  ${lambda} 1.0
pair_coeff   1 2  1 1  ${lambda} 1.0
pair_coeff   1 2  1 1  0.007 1.0
pair_coeff   1 3  ${epslj} ${siglj}  ${lambda} 1.0
pair_coeff   1 3  1 ${siglj}  ${lambda} 1.0
pair_coeff   1 3  1 1  ${lambda} 1.0
pair_coeff   1 3  1 1  0.007 1.0
pair_coeff   2 4  ${epslj} ${siglj}  ${lambda} 1.0
pair_coeff   2 4  1 ${siglj}  ${lambda} 1.0
pair_coeff   2 4  1 1  ${lambda} 1.0
pair_coeff   2 4  1 1  0.007 1.0
pair_coeff   3 4  ${epslj} ${siglj}  ${lambda} 1.0
pair_coeff   3 4  1 ${siglj}  ${lambda} 1.0
pair_coeff   3 4  1 1  ${lambda} 1.0
pair_coeff   3 4  1 1  0.007 1.0

#--------------------------------------------------------------------

run   ${eqnts}
run   0
Generated 14 of 28 mixed pair_coeff terms from geometric mixing rule
Per MPI rank memory allocation (min/avg/max) = 7.575 | 7.576 | 7.576 Mbytes
   Step        c_Treal         v_PER         v_pressC       v_pressL      v_pressToT  
      3000   0.62046902    -7141.2609      4.427627       4.4490608      4.4383439    
Loop time of 1.052e-06 on 4 procs for 0 steps with 2160 atoms

95.1% CPU use with 4 MPI tasks x no OpenMP threads

MPI task timing breakdown:
Section |  min time  |  avg time  |  max time  |%varavg| %total
---------------------------------------------------------------
Pair    | 0          | 0          | 0          |   0.0 |  0.00
Neigh   | 0          | 0          | 0          |   0.0 |  0.00
Comm    | 0          | 0          | 0          |   0.0 |  0.00
Output  | 0          | 0          | 0          |   0.0 |  0.00
Modify  | 0          | 0          | 0          |   0.0 |  0.00
Other   |            | 1.052e-06  |            |       |100.00

Nlocal:            540 ave         540 max         540 min
Histogram: 4 0 0 0 0 0 0 0 0 0
Nghost:           3050 ave        3050 max        3050 min
Histogram: 4 0 0 0 0 0 0 0 0 0
Neighs:          24239 ave       26163 max       22438 min
Histogram: 2 0 0 0 0 0 0 0 1 1

Total # of neighbors = 96956
Ave neighs/atom = 44.887037
Neighbor list builds = 0
Dangerous builds = 0

fix   fl6 all ave/time ${Nevery} ${Nrepeat} ${Nfreq} v_lambda file dat/lambda.${cnt}.dat
fix   fl6 all ave/time 2 ${Nrepeat} ${Nfreq} v_lambda file dat/lambda.${cnt}.dat
fix   fl6 all ave/time 2 500 ${Nfreq} v_lambda file dat/lambda.${cnt}.dat
fix   fl6 all ave/time 2 500 1000 v_lambda file dat/lambda.${cnt}.dat
fix   fl6 all ave/time 2 500 1000 v_lambda file dat/lambda.4.dat
fix   f6 all ave/time ${Nevery} ${Nrepeat} ${Nfreq}  c_1[*] file dat/inters3.${cnt}.dat mode vector
fix   f6 all ave/time 2 ${Nrepeat} ${Nfreq}  c_1[*] file dat/inters3.${cnt}.dat mode vector
fix   f6 all ave/time 2 500 ${Nfreq}  c_1[*] file dat/inters3.${cnt}.dat mode vector
fix   f6 all ave/time 2 500 1000  c_1[*] file dat/inters3.${cnt}.dat mode vector
fix   f6 all ave/time 2 500 1000  c_1[*] file dat/inters3.4.dat mode vector

run   ${nts}
run   1000
Generated 14 of 28 mixed pair_coeff terms from geometric mixing rule
Per MPI rank memory allocation (min/avg/max) = 7.575 | 7.576 | 7.576 Mbytes
   Step        c_Treal         v_PER         v_pressC       v_pressL      v_pressToT  
      3000   0.62046902    -7141.2609      4.427627       4.4490608      4.4383439    
      4000   0.58821949    -7103.0206      4.5400973      4.6466153      4.5933563    
Loop time of 0.941466 on 4 procs for 1000 steps with 2160 atoms

Performance: 458858.813 tau/day, 1062.173 timesteps/s, 2.294 Matom-step/s
99.9% CPU use with 4 MPI tasks x no OpenMP threads

MPI task timing breakdown:
Section |  min time  |  avg time  |  max time  |%varavg| %total
---------------------------------------------------------------
Pair    | 0.27902    | 0.29948    | 0.31966    |   3.6 | 31.81
Neigh   | 0.16487    | 0.17069    | 0.17927    |   1.4 | 18.13
Comm    | 0.02804    | 0.056638   | 0.083091   |  10.6 |  6.02
Output  | 0.00012667 | 0.00014284 | 0.00014875 |   0.0 |  0.02
Modify  | 0.41085    | 0.41134    | 0.41161    |   0.0 | 43.69
Other   |            | 0.003177   |            |       |  0.34

Nlocal:            540 ave         540 max         540 min
Histogram: 4 0 0 0 0 0 0 0 0 0
Nghost:           3048 ave        3048 max        3048 min
Histogram: 4 0 0 0 0 0 0 0 0 0
Neighs:        24256.8 ave       26176 max       22427 min
Histogram: 2 0 0 0 0 0 0 0 0 2

Total # of neighbors = 97027
Ave neighs/atom = 44.919907
Neighbor list builds = 174
Dangerous builds = 25
# --------------------------- Unfix --------------------------------------------

unfix fl6
unfix f6


#%*****************************************************************************%
variable    cntt equal ${cnt}+1
variable    cntt equal 4+1
variable    cnt  equal ${cntt}
variable    cnt  equal 5
next lam
jump SELF here
include    in.loop/loop
###%***************************************************************************%
###%    Created by:                                                           *%
###%    Nicodemo Di Pasquale                                                  *%
###%    Department of Mathematics                                             *%
###%    University of Leicester                                               *%
###%    24 March 2018                                                         *%
###%***************************************************************************%



variable lambda equal ${lam}
variable lambda equal 0.0120
variable minlam equal 1-${lam}
variable minlam equal 1-0.0120


print       "Forward Interaction ${cnt}: ${lambda} ${lam}"
Forward Interaction 5: 0.012 0.0120

# -------------------- Interactions --------------------------------------------

### Across cleaving plane interactions same phase

pair_coeff   1 5  ${epslj} ${siglj}  ${minlam} -1.0
pair_coeff   1 5  1 ${siglj}  ${minlam} -1.0
pair_coeff   1 5  1 1  ${minlam} -1.0
pair_coeff   1 5  1 1  0.988 -1.0
pair_coeff   1 6  ${epslj} ${siglj}  ${minlam} -1.0
pair_coeff   1 6  1 ${siglj}  ${minlam} -1.0
pair_coeff   1 6  1 1  ${minlam} -1.0
pair_coeff   1 6  1 1  0.988 -1.0
pair_coeff   2 7  ${epslj} ${siglj}  ${minlam} -1.0
pair_coeff   2 7  1 ${siglj}  ${minlam} -1.0
pair_coeff   2 7  1 1  ${minlam} -1.0
pair_coeff   2 7  1 1  0.988 -1.0
pair_coeff   2 8  ${epslj} ${siglj}  ${minlam} -1.0
pair_coeff   2 8  1 ${siglj}  ${minlam} -1.0
pair_coeff   2 8  1 1  ${minlam} -1.0
pair_coeff   2 8  1 1  0.988 -1.0
pair_coeff   3 7  ${epslj} ${siglj}  ${minlam} -1.0
pair_coeff   3 7  1 ${siglj}  ${minlam} -1.0
pair_coeff   3 7  1 1  ${minlam} -1.0
pair_coeff   3 7  1 1  0.988 -1.0
pair_coeff   3 8  ${epslj} ${siglj}  ${minlam} -1.0
pair_coeff   3 8  1 ${siglj}  ${minlam} -1.0
pair_coeff   3 8  1 1  ${minlam} -1.0
pair_coeff   3 8  1 1  0.988 -1.0
pair_coeff   4 5  ${epslj} ${siglj}  ${minlam} -1.0
pair_coeff   4 5  1 ${siglj}  ${minlam} -1.0
pair_coeff   4 5  1 1  ${minlam} -1.0
pair_coeff   4 5  1 1  0.988 -1.0
pair_coeff   4 6  ${epslj} ${siglj}  ${minlam} -1.0
pair_coeff   4 6  1 ${siglj}  ${minlam} -1.0
pair_coeff   4 6  1 1  ${minlam} -1.0
pair_coeff   4 6  1 1  0.988 -1.0

### Across cleaving plane interactions different phases

pair_coeff   1 2  ${epslj} ${siglj}  ${lambda} 1.0
pair_coeff   1 2  1 ${siglj}  ${lambda} 1.0
pair_coeff   1 2  1 1  ${lambda} 1.0
pair_coeff   1 2  1 1  0.012 1.0
pair_coeff   1 3  ${epslj} ${siglj}  ${lambda} 1.0
pair_coeff   1 3  1 ${siglj}  ${lambda} 1.0
pair_coeff   1 3  1 1  ${lambda} 1.0
pair_coeff   1 3  1 1  0.012 1.0
pair_coeff   2 4  ${epslj} ${siglj}  ${lambda} 1.0
pair_coeff   2 4  1 ${siglj}  ${lambda} 1.0
pair_coeff   2 4  1 1  ${lambda} 1.0
pair_coeff   2 4  1 1  0.012 1.0
pair_coeff   3 4  ${epslj} ${siglj}  ${lambda} 1.0
pair_coeff   3 4  1 ${siglj}  ${lambda} 1.0
pair_coeff   3 4  1 1  ${lambda} 1.0
pair_coeff   3 4  1 1  0.012 1.0

#--------------------------------------------------------------------

run   ${eqnts}
run   0
Generated 14 of 28 mixed pair_coeff terms from geometric mixing rule
Per MPI rank memory allocation (min/avg/max) = 7.575 | 7.576 | 7.576 Mbytes
   Step        c_Treal         v_PER         v_pressC       v_pressL      v_pressToT  
      4000   0.58821949    -7102.5612      4.5423999      4.6485811      4.5954905    
Loop time of 1.05175e-06 on 4 procs for 0 steps with 2160 atoms

95.1% CPU use with 4 MPI tasks x no OpenMP threads

MPI task timing breakdown:
Section |  min time  |  avg time  |  max time  |%varavg| %total
---------------------------------------------------------------
Pair    | 0          | 0          | 0          |   0.0 |  0.00
Neigh   | 0          | 0          | 0          |   0.0 |  0.00
Comm    | 0          | 0          | 0          |   0.0 |  0.00
Output  | 0          | 0          | 0          |   0.0 |  0.00
Modify  | 0          | 0          | 0          |   0.0 |  0.00
Other   |            | 1.052e-06  |            |       |100.00

Nlocal:            540 ave         540 max         540 min
Histogram: 4 0 0 0 0 0 0 0 0 0
Nghost:           3048 ave        3048 max        3048 min
Histogram: 4 0 0 0 0 0 0 0 0 0
Neighs:        24256.8 ave       26176 max       22427 min
Histogram: 2 0 0 0 0 0 0 0 0 2

Total # of neighbors = 97027
Ave neighs/atom = 44.919907
Neighbor list builds = 0
Dangerous builds = 0

fix   fl6 all ave/time ${Nevery} ${Nrepeat} ${Nfreq} v_lambda file dat/lambda.${cnt}.dat
fix   fl6 all ave/time 2 ${Nrepeat} ${Nfreq} v_lambda file dat/lambda.${cnt}.dat
fix   fl6 all ave/time 2 500 ${Nfreq} v_lambda file dat/lambda.${cnt}.dat
fix   fl6 all ave/time 2 500 1000 v_lambda file dat/lambda.${cnt}.dat
fix   fl6 all ave/time 2 500 1000 v_lambda file dat/lambda.5.dat
fix   f6 all ave/time ${Nevery} ${Nrepeat} ${Nfreq}  c_1[*] file dat/inters3.${cnt}.dat mode vector
fix   f6 all ave/time 2 ${Nrepeat} ${Nfreq}  c_1[*] file dat/inters3.${cnt}.dat mode vector
fix   f6 all ave/time 2 500 ${Nfreq}  c_1[*] file dat/inters3.${cnt}.dat mode vector
fix   f6 all ave/time 2 500 1000  c_1[*] file dat/inters3.${cnt}.dat mode vector
fix   f6 all ave/time 2 500 1000  c_1[*] file dat/inters3.5.dat mode vector

run   ${nts}
run   1000
Generated 14 of 28 mixed pair_coeff terms from geometric mixing rule
Per MPI rank memory allocation (min/avg/max) = 7.575 | 7.576 | 7.576 Mbytes
   Step        c_Treal         v_PER         v_pressC       v_pressL      v_pressToT  
      4000   0.58821949    -7102.5612      4.5423999      4.6485811      4.5954905    
      5000   0.62182249    -7103.8635      4.6056544      4.6466598      4.6261571    
Loop time of 1.08434 on 4 procs for 1000 steps with 2160 atoms

Performance: 398399.099 tau/day, 922.220 timesteps/s, 1.992 Matom-step/s
99.8% CPU use with 4 MPI tasks x no OpenMP threads

MPI task timing breakdown:
Section |  min time  |  avg time  |  max time  |%varavg| %total
---------------------------------------------------------------
Pair    | 0.27735    | 0.30071    | 0.32515    |   4.1 | 27.73
Neigh   | 0.27781    | 0.29039    | 0.30562    |   2.2 | 26.78
Comm    | 0.031119   | 0.070529   | 0.10656    |  12.8 |  6.50
Output  | 0.00011146 | 0.00013011 | 0.00013687 |   0.0 |  0.01
Modify  | 0.41879    | 0.41897    | 0.41928    |   0.0 | 38.64
Other   |            | 0.003612   |            |       |  0.33

Nlocal:            540 ave         540 max         540 min
Histogram: 4 0 0 0 0 0 0 0 0 0
Nghost:           3050 ave        3052 max        3048 min
Histogram: 2 0 0 0 0 0 0 0 0 2
Neighs:          24282 ave       25915 max       22739 min
Histogram: 2 0 0 0 0 0 0 0 1 1

Total # of neighbors = 97128
Ave neighs/atom = 44.966667
Neighbor list builds = 295
Dangerous builds = 91
# --------------------------- Unfix --------------------------------------------

unfix fl6
unfix f6


#%*****************************************************************************%
variable    cntt equal ${cnt}+1
variable    cntt equal 5+1
variable    cnt  equal ${cntt}
variable    cnt  equal 6
next lam
jump SELF here
include    in.loop/loop
###%***************************************************************************%
###%    Created by:                                                           *%
###%    Nicodemo Di Pasquale                                                  *%
###%    Department of Mathematics                                             *%
###%    University of Leicester                                               *%
###%    24 March 2018                                                         *%
###%***************************************************************************%



variable lambda equal ${lam}
variable lambda equal 0.0200
variable minlam equal 1-${lam}
variable minlam equal 1-0.0200


print       "Forward Interaction ${cnt}: ${lambda} ${lam}"
Forward Interaction 6: 0.02 0.0200

# -------------------- Interactions --------------------------------------------

### Across cleaving plane interactions same phase

pair_coeff   1 5  ${epslj} ${siglj}  ${minlam} -1.0
pair_coeff   1 5  1 ${siglj}  ${minlam} -1.0
pair_coeff   1 5  1 1  ${minlam} -1.0
pair_coeff   1 5  1 1  0.98 -1.0
pair_coeff   1 6  ${epslj} ${siglj}  ${minlam} -1.0
pair_coeff   1 6  1 ${siglj}  ${minlam} -1.0
pair_coeff   1 6  1 1  ${minlam} -1.0
pair_coeff   1 6  1 1  0.98 -1.0
pair_coeff   2 7  ${epslj} ${siglj}  ${minlam} -1.0
pair_coeff   2 7  1 ${siglj}  ${minlam} -1.0
pair_coeff   2 7  1 1  ${minlam} -1.0
pair_coeff   2 7  1 1  0.98 -1.0
pair_coeff   2 8  ${epslj} ${siglj}  ${minlam} -1.0
pair_coeff   2 8  1 ${siglj}  ${minlam} -1.0
pair_coeff   2 8  1 1  ${minlam} -1.0
pair_coeff   2 8  1 1  0.98 -1.0
pair_coeff   3 7  ${epslj} ${siglj}  ${minlam} -1.0
pair_coeff   3 7  1 ${siglj}  ${minlam} -1.0
pair_coeff   3 7  1 1  ${minlam} -1.0
pair_coeff   3 7  1 1  0.98 -1.0
pair_coeff   3 8  ${epslj} ${siglj}  ${minlam} -1.0
pair_coeff   3 8  1 ${siglj}  ${minlam} -1.0
pair_coeff   3 8  1 1  ${minlam} -1.0
pair_coeff   3 8  1 1  0.98 -1.0
pair_coeff   4 5  ${epslj} ${siglj}  ${minlam} -1.0
pair_coeff   4 5  1 ${siglj}  ${minlam} -1.0
pair_coeff   4 5  1 1  ${minlam} -1.0
pair_coeff   4 5  1 1  0.98 -1.0
pair_coeff   4 6  ${epslj} ${siglj}  ${minlam} -1.0
pair_coeff   4 6  1 ${siglj}  ${minlam} -1.0
pair_coeff   4 6  1 1  ${minlam} -1.0
pair_coeff   4 6  1 1  0.98 -1.0

### Across cleaving plane interactions different phases

pair_coeff   1 2  ${epslj} ${siglj}  ${lambda} 1.0
pair_coeff   1 2  1 ${siglj}  ${lambda} 1.0
pair_coeff   1 2  1 1  ${lambda} 1.0
pair_coeff   1 2  1 1  0.02 1.0
pair_coeff   1 3  ${epslj} ${siglj}  ${lambda} 1.0
pair_coeff   1 3  1 ${siglj}  ${lambda} 1.0
pair_coeff   1 3  1 1  ${lambda} 1.0
pair_coeff   1 3  1 1  0.02 1.0
pair_coeff   2 4  ${epslj} ${siglj}  ${lambda} 1.0
pair_coeff   2 4  1 ${siglj}  ${lambda} 1.0
pair_coeff   2 4  1 1  ${lambda} 1.0
pair_coeff   2 4  1 1  0.02 1.0
pair_coeff   3 4  ${epslj} ${siglj}  ${lambda} 1.0
pair_coeff   3 4  1 ${siglj}  ${lambda} 1.0
pair_coeff   3 4  1 1  ${lambda} 1.0
pair_coeff   3 4  1 1  0.02 1.0

#--------------------------------------------------------------------

run   ${eqnts}
run   0
Generated 14 of 28 mixed pair_coeff terms from geometric mixing rule
Per MPI rank memory allocation (min/avg/max) = 7.575 | 7.576 | 7.576 Mbytes
   Step        c_Treal         v_PER         v_pressC       v_pressL      v_pressToT  
      5000   0.62182249    -7103.6813      4.6065833      4.6475599      4.6270716    
Loop time of 1.219e-06 on 4 procs for 0 steps with 2160 atoms

82.0% CPU use with 4 MPI tasks x no OpenMP threads

MPI task timing breakdown:
Section |  min time  |  avg time  |  max time  |%varavg| %total
---------------------------------------------------------------
Pair    | 0          | 0          | 0          |   0.0 |  0.00
Neigh   | 0          | 0          | 0          |   0.0 |  0.00
Comm    | 0          | 0          | 0          |   0.0 |  0.00
Output  | 0          | 0          | 0          |   0.0 |  0.00
Modify  | 0          | 0          | 0          |   0.0 |  0.00
Other   |            | 1.219e-06  |            |       |100.00

Nlocal:            540 ave         540 max         540 min
Histogram: 4 0 0 0 0 0 0 0 0 0
Nghost:           3053 ave        3054 max        3052 min
Histogram: 2 0 0 0 0 0 0 0 0 2
Neighs:        24291.5 ave       25964 max       22745 min
Histogram: 2 0 0 0 0 0 0 0 1 1

Total # of neighbors = 97166
Ave neighs/atom = 44.984259
Neighbor list builds = 0
Dangerous builds = 0

fix   fl6 all ave/time ${Nevery} ${Nrepeat} ${Nfreq} v_lambda file dat/lambda.${cnt}.dat
fix   fl6 all ave/time 2 ${Nrepeat} ${Nfreq} v_lambda file dat/lambda.${cnt}.dat
fix   fl6 all ave/time 2 500 ${Nfreq} v_lambda file dat/lambda.${cnt}.dat
fix   fl6 all ave/time 2 500 1000 v_lambda file dat/lambda.${cnt}.dat
fix   fl6 all ave/time 2 500 1000 v_lambda file dat/lambda.6.dat
fix   f6 all ave/time ${Nevery} ${Nrepeat} ${Nfreq}  c_1[*] file dat/inters3.${cnt}.dat mode vector
fix   f6 all ave/time 2 ${Nrepeat} ${Nfreq}  c_1[*] file dat/inters3.${cnt}.dat mode vector
fix   f6 all ave/time 2 500 ${Nfreq}  c_1[*] file dat/inters3.${cnt}.dat mode vector
fix   f6 all ave/time 2 500 1000  c_1[*] file dat/inters3.${cnt}.dat mode vector
fix   f6 all ave/time 2 500 1000  c_1[*] file dat/inters3.6.dat mode vector

run   ${nts}
run   1000
Generated 14 of 28 mixed pair_coeff terms from geometric mixing rule
Per MPI rank memory allocation (min/avg/max) = 7.575 | 7.576 | 7.576 Mbytes
   Step        c_Treal         v_PER         v_pressC       v_pressL      v_pressToT  
      5000   0.62182249    -7103.6813      4.6065833      4.6475599      4.6270716    
      6000   0.59349991    -7134.2144      4.4027798      4.4382419      4.4205109    
Loop time of 0.984651 on 4 procs for 1000 steps with 2160 atoms

Performance: 438734.186 tau/day, 1015.588 timesteps/s, 2.194 Matom-step/s
99.8% CPU use with 4 MPI tasks x no OpenMP threads

MPI task timing breakdown:
Section |  min time  |  avg time  |  max time  |%varavg| %total
---------------------------------------------------------------
Pair    | 0.27559    | 0.30061    | 0.32538    |   4.3 | 30.53
Neigh   | 0.19225    | 0.2034     | 0.21669    |   2.2 | 20.66
Comm    | 0.025996   | 0.063621   | 0.099997   |  13.0 |  6.46
Output  | 0.00015754 | 0.00018402 | 0.00019308 |   0.0 |  0.02
Modify  | 0.4128     | 0.41352    | 0.41425    |   0.1 | 42.00
Other   |            | 0.003313   |            |       |  0.34

Nlocal:            540 ave         540 max         540 min
Histogram: 4 0 0 0 0 0 0 0 0 0
Nghost:           3059 ave        3064 max        3054 min
Histogram: 2 0 0 0 0 0 0 0 0 2
Neighs:        24269.8 ave       26222 max       22422 min
Histogram: 2 0 0 0 0 0 0 0 1 1

Total # of neighbors = 97079
Ave neighs/atom = 44.943981
Neighbor list builds = 207
Dangerous builds = 35
# --------------------------- Unfix --------------------------------------------

unfix fl6
unfix f6


#%*****************************************************************************%
variable    cntt equal ${cnt}+1
variable    cntt equal 6+1
variable    cnt  equal ${cntt}
variable    cnt  equal 7
next lam
jump SELF here
include    in.loop/loop
###%***************************************************************************%
###%    Created by:                                                           *%
###%    Nicodemo Di Pasquale                                                  *%
###%    Department of Mathematics                                             *%
###%    University of Leicester                                               *%
###%    24 March 2018                                                         *%
###%***************************************************************************%



variable lambda equal ${lam}
variable lambda equal 0.0300
variable minlam equal 1-${lam}
variable minlam equal 1-0.0300


print       "Forward Interaction ${cnt}: ${lambda} ${lam}"
Forward Interaction 7: 0.03 0.0300

# -------------------- Interactions --------------------------------------------

### Across cleaving plane interactions same phase

pair_coeff   1 5  ${epslj} ${siglj}  ${minlam} -1.0
pair_coeff   1 5  1 ${siglj}  ${minlam} -1.0
pair_coeff   1 5  1 1  ${minlam} -1.0
pair_coeff   1 5  1 1  0.97 -1.0
pair_coeff   1 6  ${epslj} ${siglj}  ${minlam} -1.0
pair_coeff   1 6  1 ${siglj}  ${minlam} -1.0
pair_coeff   1 6  1 1  ${minlam} -1.0
pair_coeff   1 6  1 1  0.97 -1.0
pair_coeff   2 7  ${epslj} ${siglj}  ${minlam} -1.0
pair_coeff   2 7  1 ${siglj}  ${minlam} -1.0
pair_coeff   2 7  1 1  ${minlam} -1.0
pair_coeff   2 7  1 1  0.97 -1.0
pair_coeff   2 8  ${epslj} ${siglj}  ${minlam} -1.0
pair_coeff   2 8  1 ${siglj}  ${minlam} -1.0
pair_coeff   2 8  1 1  ${minlam} -1.0
pair_coeff   2 8  1 1  0.97 -1.0
pair_coeff   3 7  ${epslj} ${siglj}  ${minlam} -1.0
pair_coeff   3 7  1 ${siglj}  ${minlam} -1.0
pair_coeff   3 7  1 1  ${minlam} -1.0
pair_coeff   3 7  1 1  0.97 -1.0
pair_coeff   3 8  ${epslj} ${siglj}  ${minlam} -1.0
pair_coeff   3 8  1 ${siglj}  ${minlam} -1.0
pair_coeff   3 8  1 1  ${minlam} -1.0
pair_coeff   3 8  1 1  0.97 -1.0
pair_coeff   4 5  ${epslj} ${siglj}  ${minlam} -1.0
pair_coeff   4 5  1 ${siglj}  ${minlam} -1.0
pair_coeff   4 5  1 1  ${minlam} -1.0
pair_coeff   4 5  1 1  0.97 -1.0
pair_coeff   4 6  ${epslj} ${siglj}  ${minlam} -1.0
pair_coeff   4 6  1 ${siglj}  ${minlam} -1.0
pair_coeff   4 6  1 1  ${minlam} -1.0
pair_coeff   4 6  1 1  0.97 -1.0

### Across cleaving plane interactions different phases

pair_coeff   1 2  ${epslj} ${siglj}  ${lambda} 1.0
pair_coeff   1 2  1 ${siglj}  ${lambda} 1.0
pair_coeff   1 2  1 1  ${lambda} 1.0
pair_coeff   1 2  1 1  0.03 1.0
pair_coeff   1 3  ${epslj} ${siglj}  ${lambda} 1.0
pair_coeff   1 3  1 ${siglj}  ${lambda} 1.0
pair_coeff   1 3  1 1  ${lambda} 1.0
pair_coeff   1 3  1 1  0.03 1.0
pair_coeff   2 4  ${epslj} ${siglj}  ${lambda} 1.0
pair_coeff   2 4  1 ${siglj}  ${lambda} 1.0
pair_coeff   2 4  1 1  ${lambda} 1.0
pair_coeff   2 4  1 1  0.03 1.0
pair_coeff   3 4  ${epslj} ${siglj}  ${lambda} 1.0
pair_coeff   3 4  1 ${siglj}  ${lambda} 1.0
pair_coeff   3 4  1 1  ${lambda} 1.0
pair_coeff   3 4  1 1  0.03 1.0

#--------------------------------------------------------------------

run   ${eqnts}
run   0
Generated 14 of 28 mixed pair_coeff terms from geometric mixing rule
Per MPI rank memory allocation (min/avg/max) = 7.575 | 7.576 | 7.576 Mbytes
   Step        c_Treal         v_PER         v_pressC       v_pressL      v_pressToT  
      6000   0.59349991    -7133.1744      4.4084474      4.4423176      4.4253825    
Loop time of 8.7525e-07 on 4 procs for 0 steps with 2160 atoms

114.3% CPU use with 4 MPI tasks x no OpenMP threads

MPI task timing breakdown:
Section |  min time  |  avg time  |  max time  |%varavg| %total
---------------------------------------------------------------
Pair    | 0          | 0          | 0          |   0.0 |  0.00
Neigh   | 0          | 0          | 0          |   0.0 |  0.00
Comm    | 0          | 0          | 0          |   0.0 |  0.00
Output  | 0          | 0          | 0          |   0.0 |  0.00
Modify  | 0          | 0          | 0          |   0.0 |  0.00
Other   |            | 8.753e-07  |            |       |100.00

Nlocal:            540 ave         540 max         540 min
Histogram: 4 0 0 0 0 0 0 0 0 0
Nghost:           3059 ave        3064 max        3054 min
Histogram: 2 0 0 0 0 0 0 0 0 2
Neighs:        24269.8 ave       26222 max       22422 min
Histogram: 2 0 0 0 0 0 0 0 1 1

Total # of neighbors = 97079
Ave neighs/atom = 44.943981
Neighbor list builds = 0
Dangerous builds = 0

fix   fl6 all ave/time ${Nevery} ${Nrepeat} ${Nfreq} v_lambda file dat/lambda.${cnt}.dat
fix   fl6 all ave/time 2 ${Nrepeat} ${Nfreq} v_lambda file dat/lambda.${cnt}.dat
fix   fl6 all ave/time 2 500 ${Nfreq} v_lambda file dat/lambda.${cnt}.dat
fix   fl6 all ave/time 2 500 1000 v_lambda file dat/lambda.${cnt}.dat
fix   fl6 all ave/time 2 500 1000 v_lambda file dat/lambda.7.dat
fix   f6 all ave/time ${Nevery} ${Nrepeat} ${Nfreq}  c_1[*] file dat/inters3.${cnt}.dat mode vector
fix   f6 all ave/time 2 ${Nrepeat} ${Nfreq}  c_1[*] file dat/inters3.${cnt}.dat mode vector
fix   f6 all ave/time 2 500 ${Nfreq}  c_1[*] file dat/inters3.${cnt}.dat mode vector
fix   f6 all ave/time 2 500 1000  c_1[*] file dat/inters3.${cnt}.dat mode vector
fix   f6 all ave/time 2 500 1000  c_1[*] file dat/inters3.7.dat mode vector

run   ${nts}
run   1000
Generated 14 of 28 mixed pair_coeff terms from geometric mixing rule
Per MPI rank memory allocation (min/avg/max) = 7.575 | 7.576 | 7.576 Mbytes
   Step        c_Treal         v_PER         v_pressC       v_pressL      v_pressToT  
      6000   0.59349991    -7133.1744      4.4084474      4.4423176      4.4253825    
      7000   0.60305858    -7128.6895      4.3321239      4.6433058      4.4877149    
Loop time of 0.960986 on 4 procs for 1000 steps with 2160 atoms

Performance: 449538.311 tau/day, 1040.598 timesteps/s, 2.248 Matom-step/s
99.8% CPU use with 4 MPI tasks x no OpenMP threads

MPI task timing breakdown:
Section |  min time  |  avg time  |  max time  |%varavg| %total
---------------------------------------------------------------
Pair    | 0.27965    | 0.29978    | 0.32068    |   3.5 | 31.20
Neigh   | 0.18608    | 0.19243    | 0.19975    |   1.4 | 20.02
Comm    | 0.028555   | 0.054382   | 0.08125    |  10.8 |  5.66
Output  | 0.00011504 | 0.00013385 | 0.0001405  |   0.0 |  0.01
Modify  | 0.41019    | 0.41115    | 0.41178    |   0.1 | 42.78
Other   |            | 0.003112   |            |       |  0.32

Nlocal:            540 ave         540 max         540 min
Histogram: 4 0 0 0 0 0 0 0 0 0
Nghost:           3060 ave        3060 max        3060 min
Histogram: 4 0 0 0 0 0 0 0 0 0
Neighs:          24244 ave       26017 max       22513 min
Histogram: 2 0 0 0 0 0 0 0 0 2

Total # of neighbors = 96976
Ave neighs/atom = 44.896296
Neighbor list builds = 196
Dangerous builds = 30
# --------------------------- Unfix --------------------------------------------

unfix fl6
unfix f6


#%*****************************************************************************%
variable    cntt equal ${cnt}+1
variable    cntt equal 7+1
variable    cnt  equal ${cntt}
variable    cnt  equal 8
next lam
jump SELF here
include    in.loop/loop
###%***************************************************************************%
###%    Created by:                                                           *%
###%    Nicodemo Di Pasquale                                                  *%
###%    Department of Mathematics                                             *%
###%    University of Leicester                                               *%
###%    24 March 2018                                                         *%
###%***************************************************************************%



variable lambda equal ${lam}
variable lambda equal 0.0400
variable minlam equal 1-${lam}
variable minlam equal 1-0.0400


print       "Forward Interaction ${cnt}: ${lambda} ${lam}"
Forward Interaction 8: 0.04 0.0400

# -------------------- Interactions --------------------------------------------

### Across cleaving plane interactions same phase

pair_coeff   1 5  ${epslj} ${siglj}  ${minlam} -1.0
pair_coeff   1 5  1 ${siglj}  ${minlam} -1.0
pair_coeff   1 5  1 1  ${minlam} -1.0
pair_coeff   1 5  1 1  0.96 -1.0
pair_coeff   1 6  ${epslj} ${siglj}  ${minlam} -1.0
pair_coeff   1 6  1 ${siglj}  ${minlam} -1.0
pair_coeff   1 6  1 1  ${minlam} -1.0
pair_coeff   1 6  1 1  0.96 -1.0
pair_coeff   2 7  ${epslj} ${siglj}  ${minlam} -1.0
pair_coeff   2 7  1 ${siglj}  ${minlam} -1.0
pair_coeff   2 7  1 1  ${minlam} -1.0
pair_coeff   2 7  1 1  0.96 -1.0
pair_coeff   2 8  ${epslj} ${siglj}  ${minlam} -1.0
pair_coeff   2 8  1 ${siglj}  ${minlam} -1.0
pair_coeff   2 8  1 1  ${minlam} -1.0
pair_coeff   2 8  1 1  0.96 -1.0
pair_coeff   3 7  ${epslj} ${siglj}  ${minlam} -1.0
pair_coeff   3 7  1 ${siglj}  ${minlam} -1.0
pair_coeff   3 7  1 1  ${minlam} -1.0
pair_coeff   3 7  1 1  0.96 -1.0
pair_coeff   3 8  ${epslj} ${siglj}  ${minlam} -1.0
pair_coeff   3 8  1 ${siglj}  ${minlam} -1.0
pair_coeff   3 8  1 1  ${minlam} -1.0
pair_coeff   3 8  1 1  0.96 -1.0
pair_coeff   4 5  ${epslj} ${siglj}  ${minlam} -1.0
pair_coeff   4 5  1 ${siglj}  ${minlam} -1.0
pair_coeff   4 5  1 1  ${minlam} -1.0
pair_coeff   4 5  1 1  0.96 -1.0
pair_coeff   4 6  ${epslj} ${siglj}  ${minlam} -1.0
pair_coeff   4 6  1 ${siglj}  ${minlam} -1.0
pair_coeff   4 6  1 1  ${minlam} -1.0
pair_coeff   4 6  1 1  0.96 -1.0

### Across cleaving plane interactions different phases

pair_coeff   1 2  ${epslj} ${siglj}  ${lambda} 1.0
pair_coeff   1 2  1 ${siglj}  ${lambda} 1.0
pair_coeff   1 2  1 1  ${lambda} 1.0
pair_coeff   1 2  1 1  0.04 1.0
pair_coeff   1 3  ${epslj} ${siglj}  ${lambda} 1.0
pair_coeff   1 3  1 ${siglj}  ${lambda} 1.0
pair_coeff   1 3  1 1  ${lambda} 1.0
pair_coeff   1 3  1 1  0.04 1.0
pair_coeff   2 4  ${epslj} ${siglj}  ${lambda} 1.0
pair_coeff   2 4  1 ${siglj}  ${lambda} 1.0
pair_coeff   2 4  1 1  ${lambda} 1.0
pair_coeff   2 4  1 1  0.04 1.0
pair_coeff   3 4  ${epslj} ${siglj}  ${lambda} 1.0
pair_coeff   3 4  1 ${siglj}  ${lambda} 1.0
pair_coeff   3 4  1 1  ${lambda} 1.0
pair_coeff   3 4  1 1  0.04 1.0

#--------------------------------------------------------------------

run   ${eqnts}
run   0
Generated 14 of 28 mixed pair_coeff terms from geometric mixing rule
Per MPI rank memory allocation (min/avg/max) = 7.575 | 7.576 | 7.576 Mbytes
   Step        c_Treal         v_PER         v_pressC       v_pressL      v_pressToT  
      7000   0.60305858    -7127.9433      4.3350681      4.647337       4.4912025    
Loop time of 1.4995e-06 on 4 procs for 0 steps with 2160 atoms

83.4% CPU use with 4 MPI tasks x no OpenMP threads

MPI task timing breakdown:
Section |  min time  |  avg time  |  max time  |%varavg| %total
---------------------------------------------------------------
Pair    | 0          | 0          | 0          |   0.0 |  0.00
Neigh   | 0          | 0          | 0          |   0.0 |  0.00
Comm    | 0          | 0          | 0          |   0.0 |  0.00
Output  | 0          | 0          | 0          |   0.0 |  0.00
Modify  | 0          | 0          | 0          |   0.0 |  0.00
Other   |            | 1.499e-06  |            |       |100.00

Nlocal:            540 ave         540 max         540 min
Histogram: 4 0 0 0 0 0 0 0 0 0
Nghost:           3060 ave        3060 max        3060 min
Histogram: 4 0 0 0 0 0 0 0 0 0
Neighs:        24257.8 ave       26006 max       22556 min
Histogram: 2 0 0 0 0 0 0 0 0 2

Total # of neighbors = 97031
Ave neighs/atom = 44.921759
Neighbor list builds = 0
Dangerous builds = 0

fix   fl6 all ave/time ${Nevery} ${Nrepeat} ${Nfreq} v_lambda file dat/lambda.${cnt}.dat
fix   fl6 all ave/time 2 ${Nrepeat} ${Nfreq} v_lambda file dat/lambda.${cnt}.dat
fix   fl6 all ave/time 2 500 ${Nfreq} v_lambda file dat/lambda.${cnt}.dat
fix   fl6 all ave/time 2 500 1000 v_lambda file dat/lambda.${cnt}.dat
fix   fl6 all ave/time 2 500 1000 v_lambda file dat/lambda.8.dat
fix   f6 all ave/time ${Nevery} ${Nrepeat} ${Nfreq}  c_1[*] file dat/inters3.${cnt}.dat mode vector
fix   f6 all ave/time 2 ${Nrepeat} ${Nfreq}  c_1[*] file dat/inters3.${cnt}.dat mode vector
fix   f6 all ave/time 2 500 ${Nfreq}  c_1[*] file dat/inters3.${cnt}.dat mode vector
fix   f6 all ave/time 2 500 1000  c_1[*] file dat/inters3.${cnt}.dat mode vector
fix   f6 all ave/time 2 500 1000  c_1[*] file dat/inters3.8.dat mode vector

run   ${nts}
run   1000
Generated 14 of 28 mixed pair_coeff terms from geometric mixing rule
Per MPI rank memory allocation (min/avg/max) = 7.575 | 7.576 | 7.576 Mbytes
   Step        c_Treal         v_PER         v_pressC       v_pressL      v_pressToT  
      7000   0.60305858    -7127.9433      4.3350681      4.647337       4.4912025    
      8000   0.61989537    -7135.7873      4.3993445      4.5140931      4.4567188    
Loop time of 0.955282 on 4 procs for 1000 steps with 2160 atoms

Performance: 452222.510 tau/day, 1046.811 timesteps/s, 2.261 Matom-step/s
99.8% CPU use with 4 MPI tasks x no OpenMP threads

MPI task timing breakdown:
Section |  min time  |  avg time  |  max time  |%varavg| %total
---------------------------------------------------------------
Pair    | 0.28045    | 0.29996    | 0.3273     |   3.6 | 31.40
Neigh   | 0.17354    | 0.17961    | 0.19186    |   1.7 | 18.80
Comm    | 0.021598   | 0.061762   | 0.086907   |  10.8 |  6.47
Output  | 0.00011917 | 0.00013914 | 0.000146   |   0.0 |  0.01
Modify  | 0.40854    | 0.41037    | 0.41192    |   0.2 | 42.96
Other   |            | 0.003432   |            |       |  0.36

Nlocal:            540 ave         540 max         540 min
Histogram: 4 0 0 0 0 0 0 0 0 0
Nghost:           3057 ave        3058 max        3056 min
Histogram: 2 0 0 0 0 0 0 0 0 2
Neighs:        24288.2 ave       26177 max       22522 min
Histogram: 2 0 0 0 0 0 0 0 1 1

Total # of neighbors = 97153
Ave neighs/atom = 44.978241
Neighbor list builds = 183
Dangerous builds = 30
# --------------------------- Unfix --------------------------------------------

unfix fl6
unfix f6


#%*****************************************************************************%
variable    cntt equal ${cnt}+1
variable    cntt equal 8+1
variable    cnt  equal ${cntt}
variable    cnt  equal 9
next lam
jump SELF here
include    in.loop/loop
###%***************************************************************************%
###%    Created by:                                                           *%
###%    Nicodemo Di Pasquale                                                  *%
###%    Department of Mathematics                                             *%
###%    University of Leicester                                               *%
###%    24 March 2018                                                         *%
###%***************************************************************************%



variable lambda equal ${lam}
variable lambda equal 0.0500
variable minlam equal 1-${lam}
variable minlam equal 1-0.0500


print       "Forward Interaction ${cnt}: ${lambda} ${lam}"
Forward Interaction 9: 0.05 0.0500

# -------------------- Interactions --------------------------------------------

### Across cleaving plane interactions same phase

pair_coeff   1 5  ${epslj} ${siglj}  ${minlam} -1.0
pair_coeff   1 5  1 ${siglj}  ${minlam} -1.0
pair_coeff   1 5  1 1  ${minlam} -1.0
pair_coeff   1 5  1 1  0.95 -1.0
pair_coeff   1 6  ${epslj} ${siglj}  ${minlam} -1.0
pair_coeff   1 6  1 ${siglj}  ${minlam} -1.0
pair_coeff   1 6  1 1  ${minlam} -1.0
pair_coeff   1 6  1 1  0.95 -1.0
pair_coeff   2 7  ${epslj} ${siglj}  ${minlam} -1.0
pair_coeff   2 7  1 ${siglj}  ${minlam} -1.0
pair_coeff   2 7  1 1  ${minlam} -1.0
pair_coeff   2 7  1 1  0.95 -1.0
pair_coeff   2 8  ${epslj} ${siglj}  ${minlam} -1.0
pair_coeff   2 8  1 ${siglj}  ${minlam} -1.0
pair_coeff   2 8  1 1  ${minlam} -1.0
pair_coeff   2 8  1 1  0.95 -1.0
pair_coeff   3 7  ${epslj} ${siglj}  ${minlam} -1.0
pair_coeff   3 7  1 ${siglj}  ${minlam} -1.0
pair_coeff   3 7  1 1  ${minlam} -1.0
pair_coeff   3 7  1 1  0.95 -1.0
pair_coeff   3 8  ${epslj} ${siglj}  ${minlam} -1.0
pair_coeff   3 8  1 ${siglj}  ${minlam} -1.0
pair_coeff   3 8  1 1  ${minlam} -1.0
pair_coeff   3 8  1 1  0.95 -1.0
pair_coeff   4 5  ${epslj} ${siglj}  ${minlam} -1.0
pair_coeff   4 5  1 ${siglj}  ${minlam} -1.0
pair_coeff   4 5  1 1  ${minlam} -1.0
pair_coeff   4 5  1 1  0.95 -1.0
pair_coeff   4 6  ${epslj} ${siglj}  ${minlam} -1.0
pair_coeff   4 6  1 ${siglj}  ${minlam} -1.0
pair_coeff   4 6  1 1  ${minlam} -1.0
pair_coeff   4 6  1 1  0.95 -1.0

### Across cleaving plane interactions different phases

pair_coeff   1 2  ${epslj} ${siglj}  ${lambda} 1.0
pair_coeff   1 2  1 ${siglj}  ${lambda} 1.0
pair_coeff   1 2  1 1  ${lambda} 1.0
pair_coeff   1 2  1 1  0.05 1.0
pair_coeff   1 3  ${epslj} ${siglj}  ${lambda} 1.0
pair_coeff   1 3  1 ${siglj}  ${lambda} 1.0
pair_coeff   1 3  1 1  ${lambda} 1.0
pair_coeff   1 3  1 1  0.05 1.0
pair_coeff   2 4  ${epslj} ${siglj}  ${lambda} 1.0
pair_coeff   2 4  1 ${siglj}  ${lambda} 1.0
pair_coeff   2 4  1 1  ${lambda} 1.0
pair_coeff   2 4  1 1  0.05 1.0
pair_coeff   3 4  ${epslj} ${siglj}  ${lambda} 1.0
pair_coeff   3 4  1 ${siglj}  ${lambda} 1.0
pair_coeff   3 4  1 1  ${lambda} 1.0
pair_coeff   3 4  1 1  0.05 1.0

#--------------------------------------------------------------------

run   ${eqnts}
run   0
Generated 14 of 28 mixed pair_coeff terms from geometric mixing rule
Per MPI rank memory allocation (min/avg/max) = 7.575 | 7.576 | 7.576 Mbytes
   Step        c_Treal         v_PER         v_pressC       v_pressL      v_pressToT  
      8000   0.61989537    -7135.3032      4.4015193      4.5166446      4.4590819    
Loop time of 1.229e-06 on 4 procs for 0 steps with 2160 atoms

81.4% CPU use with 4 MPI tasks x no OpenMP threads

MPI task timing breakdown:
Section |  min time  |  avg time  |  max time  |%varavg| %total
---------------------------------------------------------------
Pair    | 0          | 0          | 0          |   0.0 |  0.00
Neigh   | 0          | 0          | 0          |   0.0 |  0.00
Comm    | 0          | 0          | 0          |   0.0 |  0.00
Output  | 0          | 0          | 0          |   0.0 |  0.00
Modify  | 0          | 0          | 0          |   0.0 |  0.00
Other   |            | 1.229e-06  |            |       |100.00

Nlocal:            540 ave         540 max         540 min
Histogram: 4 0 0 0 0 0 0 0 0 0
Nghost:           3057 ave        3058 max        3056 min
Histogram: 2 0 0 0 0 0 0 0 0 2
Neighs:        24269.8 ave       26115 max       22530 min
Histogram: 2 0 0 0 0 0 0 0 1 1

Total # of neighbors = 97079
Ave neighs/atom = 44.943981
Neighbor list builds = 0
Dangerous builds = 0

fix   fl6 all ave/time ${Nevery} ${Nrepeat} ${Nfreq} v_lambda file dat/lambda.${cnt}.dat
fix   fl6 all ave/time 2 ${Nrepeat} ${Nfreq} v_lambda file dat/lambda.${cnt}.dat
fix   fl6 all ave/time 2 500 ${Nfreq} v_lambda file dat/lambda.${cnt}.dat
fix   fl6 all ave/time 2 500 1000 v_lambda file dat/lambda.${cnt}.dat
fix   fl6 all ave/time 2 500 1000 v_lambda file dat/lambda.9.dat
fix   f6 all ave/time ${Nevery} ${Nrepeat} ${Nfreq}  c_1[*] file dat/inters3.${cnt}.dat mode vector
fix   f6 all ave/time 2 ${Nrepeat} ${Nfreq}  c_1[*] file dat/inters3.${cnt}.dat mode vector
fix   f6 all ave/time 2 500 ${Nfreq}  c_1[*] file dat/inters3.${cnt}.dat mode vector
fix   f6 all ave/time 2 500 1000  c_1[*] file dat/inters3.${cnt}.dat mode vector
fix   f6 all ave/time 2 500 1000  c_1[*] file dat/inters3.9.dat mode vector

run   ${nts}
run   1000
Generated 14 of 28 mixed pair_coeff terms from geometric mixing rule
Per MPI rank memory allocation (min/avg/max) = 7.575 | 7.576 | 7.576 Mbytes
   Step        c_Treal         v_PER         v_pressC       v_pressL      v_pressToT  
      8000   0.61989537    -7135.3032      4.4015193      4.5166446      4.4590819    
      9000   0.61031806    -7135.7244      4.3945326      4.5107114      4.452622     
Loop time of 0.955357 on 4 procs for 1000 steps with 2160 atoms

Performance: 452186.900 tau/day, 1046.729 timesteps/s, 2.261 Matom-step/s
99.8% CPU use with 4 MPI tasks x no OpenMP threads

MPI task timing breakdown:
Section |  min time  |  avg time  |  max time  |%varavg| %total
---------------------------------------------------------------
Pair    | 0.28081    | 0.29983    | 0.32186    |   3.4 | 31.38
Neigh   | 0.18244    | 0.1879     | 0.19318    |   1.1 | 19.67
Comm    | 0.02541    | 0.05261    | 0.077672   |  10.3 |  5.51
Output  | 0.00012667 | 0.00014318 | 0.00014883 |   0.0 |  0.01
Modify  | 0.4105     | 0.41184    | 0.41283    |   0.1 | 43.11
Other   |            | 0.003035   |            |       |  0.32

Nlocal:            540 ave         540 max         540 min
Histogram: 4 0 0 0 0 0 0 0 0 0
Nghost:           3045 ave        3046 max        3044 min
Histogram: 2 0 0 0 0 0 0 0 0 2
Neighs:        24276.2 ave       26218 max       22451 min
Histogram: 2 0 0 0 0 0 0 0 0 2

Total # of neighbors = 97105
Ave neighs/atom = 44.956019
Neighbor list builds = 191
Dangerous builds = 37
# --------------------------- Unfix --------------------------------------------

unfix fl6
unfix f6


#%*****************************************************************************%
variable    cntt equal ${cnt}+1
variable    cntt equal 9+1
variable    cnt  equal ${cntt}
variable    cnt  equal 10
next lam
jump SELF here
include    in.loop/loop
###%***************************************************************************%
###%    Created by:                                                           *%
###%    Nicodemo Di Pasquale                                                  *%
###%    Department of Mathematics                                             *%
###%    University of Leicester                                               *%
###%    24 March 2018                                                         *%
###%***************************************************************************%



variable lambda equal ${lam}
variable lambda equal 0.0600
variable minlam equal 1-${lam}
variable minlam equal 1-0.0600


print       "Forward Interaction ${cnt}: ${lambda} ${lam}"
Forward Interaction 10: 0.06 0.0600

# -------------------- Interactions --------------------------------------------

### Across cleaving plane interactions same phase

pair_coeff   1 5  ${epslj} ${siglj}  ${minlam} -1.0
pair_coeff   1 5  1 ${siglj}  ${minlam} -1.0
pair_coeff   1 5  1 1  ${minlam} -1.0
pair_coeff   1 5  1 1  0.94 -1.0
pair_coeff   1 6  ${epslj} ${siglj}  ${minlam} -1.0
pair_coeff   1 6  1 ${siglj}  ${minlam} -1.0
pair_coeff   1 6  1 1  ${minlam} -1.0
pair_coeff   1 6  1 1  0.94 -1.0
pair_coeff   2 7  ${epslj} ${siglj}  ${minlam} -1.0
pair_coeff   2 7  1 ${siglj}  ${minlam} -1.0
pair_coeff   2 7  1 1  ${minlam} -1.0
pair_coeff   2 7  1 1  0.94 -1.0
pair_coeff   2 8  ${epslj} ${siglj}  ${minlam} -1.0
pair_coeff   2 8  1 ${siglj}  ${minlam} -1.0
pair_coeff   2 8  1 1  ${minlam} -1.0
pair_coeff   2 8  1 1  0.94 -1.0
pair_coeff   3 7  ${epslj} ${siglj}  ${minlam} -1.0
pair_coeff   3 7  1 ${siglj}  ${minlam} -1.0
pair_coeff   3 7  1 1  ${minlam} -1.0
pair_coeff   3 7  1 1  0.94 -1.0
pair_coeff   3 8  ${epslj} ${siglj}  ${minlam} -1.0
pair_coeff   3 8  1 ${siglj}  ${minlam} -1.0
pair_coeff   3 8  1 1  ${minlam} -1.0
pair_coeff   3 8  1 1  0.94 -1.0
pair_coeff   4 5  ${epslj} ${siglj}  ${minlam} -1.0
pair_coeff   4 5  1 ${siglj}  ${minlam} -1.0
pair_coeff   4 5  1 1  ${minlam} -1.0
pair_coeff   4 5  1 1  0.94 -1.0
pair_coeff   4 6  ${epslj} ${siglj}  ${minlam} -1.0
pair_coeff   4 6  1 ${siglj}  ${minlam} -1.0
pair_coeff   4 6  1 1  ${minlam} -1.0
pair_coeff   4 6  1 1  0.94 -1.0

### Across cleaving plane interactions different phases

pair_coeff   1 2  ${epslj} ${siglj}  ${lambda} 1.0
pair_coeff   1 2  1 ${siglj}  ${lambda} 1.0
pair_coeff   1 2  1 1  ${lambda} 1.0
pair_coeff   1 2  1 1  0.06 1.0
pair_coeff   1 3  ${epslj} ${siglj}  ${lambda} 1.0
pair_coeff   1 3  1 ${siglj}  ${lambda} 1.0
pair_coeff   1 3  1 1  ${lambda} 1.0
pair_coeff   1 3  1 1  0.06 1.0
pair_coeff   2 4  ${epslj} ${siglj}  ${lambda} 1.0
pair_coeff   2 4  1 ${siglj}  ${lambda} 1.0
pair_coeff   2 4  1 1  ${lambda} 1.0
pair_coeff   2 4  1 1  0.06 1.0
pair_coeff   3 4  ${epslj} ${siglj}  ${lambda} 1.0
pair_coeff   3 4  1 ${siglj}  ${lambda} 1.0
pair_coeff   3 4  1 1  ${lambda} 1.0
pair_coeff   3 4  1 1  0.06 1.0

#--------------------------------------------------------------------

run   ${eqnts}
run   0
Generated 14 of 28 mixed pair_coeff terms from geometric mixing rule
Per MPI rank memory allocation (min/avg/max) = 7.575 | 7.576 | 7.576 Mbytes
   Step        c_Treal         v_PER         v_pressC       v_pressL      v_pressToT  
      9000   0.61031806    -7135.3172      4.3961541      4.5131068      4.4546305    
Loop time of 1.3335e-06 on 4 procs for 0 steps with 2160 atoms

75.0% CPU use with 4 MPI tasks x no OpenMP threads

MPI task timing breakdown:
Section |  min time  |  avg time  |  max time  |%varavg| %total
---------------------------------------------------------------
Pair    | 0          | 0          | 0          |   0.0 |  0.00
Neigh   | 0          | 0          | 0          |   0.0 |  0.00
Comm    | 0          | 0          | 0          |   0.0 |  0.00
Output  | 0          | 0          | 0          |   0.0 |  0.00
Modify  | 0          | 0          | 0          |   0.0 |  0.00
Other   |            | 1.334e-06  |            |       |100.00

Nlocal:            540 ave         540 max         540 min
Histogram: 4 0 0 0 0 0 0 0 0 0
Nghost:           3052 ave        3052 max        3052 min
Histogram: 4 0 0 0 0 0 0 0 0 0
Neighs:          24286 ave       26233 max       22470 min
Histogram: 2 0 0 0 0 0 0 0 1 1

Total # of neighbors = 97144
Ave neighs/atom = 44.974074
Neighbor list builds = 0
Dangerous builds = 0

fix   fl6 all ave/time ${Nevery} ${Nrepeat} ${Nfreq} v_lambda file dat/lambda.${cnt}.dat
fix   fl6 all ave/time 2 ${Nrepeat} ${Nfreq} v_lambda file dat/lambda.${cnt}.dat
fix   fl6 all ave/time 2 500 ${Nfreq} v_lambda file dat/lambda.${cnt}.dat
fix   fl6 all ave/time 2 500 1000 v_lambda file dat/lambda.${cnt}.dat
fix   fl6 all ave/time 2 500 1000 v_lambda file dat/lambda.10.dat
fix   f6 all ave/time ${Nevery} ${Nrepeat} ${Nfreq}  c_1[*] file dat/inters3.${cnt}.dat mode vector
fix   f6 all ave/time 2 ${Nrepeat} ${Nfreq}  c_1[*] file dat/inters3.${cnt}.dat mode vector
fix   f6 all ave/time 2 500 ${Nfreq}  c_1[*] file dat/inters3.${cnt}.dat mode vector
fix   f6 all ave/time 2 500 1000  c_1[*] file dat/inters3.${cnt}.dat mode vector
fix   f6 all ave/time 2 500 1000  c_1[*] file dat/inters3.10.dat mode vector

run   ${nts}
run   1000
Generated 14 of 28 mixed pair_coeff terms from geometric mixing rule
Per MPI rank memory allocation (min/avg/max) = 7.575 | 7.576 | 7.576 Mbytes
   Step        c_Treal         v_PER         v_pressC       v_pressL      v_pressToT  
      9000   0.61031806    -7135.3172      4.3961541      4.5131068      4.4546305    
     10000   0.62466199    -7153.4561      4.3641423      4.3749962      4.3695692    
Loop time of 0.913262 on 4 procs for 1000 steps with 2160 atoms

Performance: 473029.613 tau/day, 1094.976 timesteps/s, 2.365 Matom-step/s
99.7% CPU use with 4 MPI tasks x no OpenMP threads

MPI task timing breakdown:
Section |  min time  |  avg time  |  max time  |%varavg| %total
---------------------------------------------------------------
Pair    | 0.27754    | 0.30038    | 0.32337    |   4.0 | 32.89
Neigh   | 0.13474    | 0.14077    | 0.1486     |   1.6 | 15.41
Comm    | 0.025768   | 0.056402   | 0.085256   |  11.7 |  6.18
Output  | 0.00013092 | 0.00015021 | 0.00015696 |   0.0 |  0.02
Modify  | 0.41218    | 0.41231    | 0.4125     |   0.0 | 45.15
Other   |            | 0.003261   |            |       |  0.36

Nlocal:            540 ave         540 max         540 min
Histogram: 4 0 0 0 0 0 0 0 0 0
Nghost:           3065 ave        3066 max        3064 min
Histogram: 2 0 0 0 0 0 0 0 0 2
Neighs:          24255 ave       26095 max       22377 min
Histogram: 2 0 0 0 0 0 0 0 0 2

Total # of neighbors = 97020
Ave neighs/atom = 44.916667
Neighbor list builds = 143
Dangerous builds = 18
# --------------------------- Unfix --------------------------------------------

unfix fl6
unfix f6


#%*****************************************************************************%
variable    cntt equal ${cnt}+1
variable    cntt equal 10+1
variable    cnt  equal ${cntt}
variable    cnt  equal 11
next lam
jump SELF here
include    in.loop/loop
###%***************************************************************************%
[...]
pair_coeff   2 8  1 1  ${minlam} -1.0
pair_coeff   2 8  1 1  0.003 -1.0
pair_coeff   3 7  ${epslj} ${siglj}  ${minlam} -1.0
pair_coeff   3 7  1 ${siglj}  ${minlam} -1.0
pair_coeff   3 7  1 1  ${minlam} -1.0
pair_coeff   3 7  1 1  0.003 -1.0
pair_coeff   3 8  ${epslj} ${siglj}  ${minlam} -1.0
pair_coeff   3 8  1 ${siglj}  ${minlam} -1.0
pair_coeff   3 8  1 1  ${minlam} -1.0
pair_coeff   3 8  1 1  0.003 -1.0
pair_coeff   4 5  ${epslj} ${siglj}  ${minlam} -1.0
pair_coeff   4 5  1 ${siglj}  ${minlam} -1.0
pair_coeff   4 5  1 1  ${minlam} -1.0
pair_coeff   4 5  1 1  0.003 -1.0
pair_coeff   4 6  ${epslj} ${siglj}  ${minlam} -1.0
pair_coeff   4 6  1 ${siglj}  ${minlam} -1.0
pair_coeff   4 6  1 1  ${minlam} -1.0
pair_coeff   4 6  1 1  0.003 -1.0

### Across cleaving plane interactions different phases

pair_coeff   1 2  ${epslj} ${siglj}  ${lambda} 1.0
pair_coeff   1 2  1 ${siglj}  ${lambda} 1.0
pair_coeff   1 2  1 1  ${lambda} 1.0
pair_coeff   1 2  1 1  0.997 1.0
pair_coeff   1 3  ${epslj} ${siglj}  ${lambda} 1.0
pair_coeff   1 3  1 ${siglj}  ${lambda} 1.0
pair_coeff   1 3  1 1  ${lambda} 1.0
pair_coeff   1 3  1 1  0.997 1.0
pair_coeff   2 4  ${epslj} ${siglj}  ${lambda} 1.0
pair_coeff   2 4  1 ${siglj}  ${lambda} 1.0
pair_coeff   2 4  1 1  ${lambda} 1.0
pair_coeff   2 4  1 1  0.997 1.0
pair_coeff   3 4  ${epslj} ${siglj}  ${lambda} 1.0
pair_coeff   3 4  1 ${siglj}  ${lambda} 1.0
pair_coeff   3 4  1 1  ${lambda} 1.0
pair_coeff   3 4  1 1  0.997 1.0

#--------------------------------------------------------------------

run   ${eqnts}
run   0
Generated 14 of 28 mixed pair_coeff terms from geometric mixing rule
Per MPI rank memory allocation (min/avg/max) = 7.575 | 7.576 | 7.576 Mbytes
   Step        c_Treal         v_PER         v_pressC       v_pressL      v_pressToT  
     47000   0.61211015    -7170.3129      4.5325623      3.994639       4.2636006    
Loop time of 1.2295e-06 on 4 procs for 0 steps with 2160 atoms

81.3% CPU use with 4 MPI tasks x no OpenMP threads

MPI task timing breakdown:
Section |  min time  |  avg time  |  max time  |%varavg| %total
---------------------------------------------------------------
Pair    | 0          | 0          | 0          |   0.0 |  0.00
Neigh   | 0          | 0          | 0          |   0.0 |  0.00
Comm    | 0          | 0          | 0          |   0.0 |  0.00
Output  | 0          | 0          | 0          |   0.0 |  0.00
Modify  | 0          | 0          | 0          |   0.0 |  0.00
Other   |            | 1.23e-06   |            |       |100.00

Nlocal:            540 ave         540 max         540 min
Histogram: 4 0 0 0 0 0 0 0 0 0
Nghost:           3046 ave        3046 max        3046 min
Histogram: 4 0 0 0 0 0 0 0 0 0
Neighs:        24203.8 ave       25965 max       22485 min
Histogram: 2 0 0 0 0 0 0 0 0 2

Total # of neighbors = 96815
Ave neighs/atom = 44.821759
Neighbor list builds = 0
Dangerous builds = 0

fix   fl6 all ave/time ${Nevery} ${Nrepeat} ${Nfreq} v_lambda file dat/lambda.${cnt}.dat
fix   fl6 all ave/time 2 ${Nrepeat} ${Nfreq} v_lambda file dat/lambda.${cnt}.dat
fix   fl6 all ave/time 2 500 ${Nfreq} v_lambda file dat/lambda.${cnt}.dat
fix   fl6 all ave/time 2 500 1000 v_lambda file dat/lambda.${cnt}.dat
fix   fl6 all ave/time 2 500 1000 v_lambda file dat/lambda.48.dat
fix   f6 all ave/time ${Nevery} ${Nrepeat} ${Nfreq}  c_1[*] file dat/inters3.${cnt}.dat mode vector
fix   f6 all ave/time 2 ${Nrepeat} ${Nfreq}  c_1[*] file dat/inters3.${cnt}.dat mode vector
fix   f6 all ave/time 2 500 ${Nfreq}  c_1[*] file dat/inters3.${cnt}.dat mode vector
fix   f6 all ave/time 2 500 1000  c_1[*] file dat/inters3.${cnt}.dat mode vector
fix   f6 all ave/time 2 500 1000  c_1[*] file dat/inters3.48.dat mode vector

run   ${nts}
run   1000
Generated 14 of 28 mixed pair_coeff terms from geometric mixing rule
Per MPI rank memory allocation (min/avg/max) = 7.575 | 7.576 | 7.576 Mbytes
   Step        c_Treal         v_PER         v_pressC       v_pressL      v_pressToT  
     47000   0.61211015    -7170.3129      4.5325623      3.994639       4.2636006    
     48000   0.63271213    -7101.3648      4.873034       4.4194826      4.6462583    
Loop time of 1.00605 on 4 procs for 1000 steps with 2160 atoms

Performance: 429402.357 tau/day, 993.987 timesteps/s, 2.147 Matom-step/s
99.6% CPU use with 4 MPI tasks x no OpenMP threads

MPI task timing breakdown:
Section |  min time  |  avg time  |  max time  |%varavg| %total
---------------------------------------------------------------
Pair    | 0.27893    | 0.30089    | 0.32431    |   3.7 | 29.91
Neigh   | 0.20511    | 0.21392    | 0.22491    |   1.7 | 21.26
Comm    | 0.030138   | 0.064631   | 0.095373   |  11.1 |  6.42
Output  | 0.00012471 | 0.00014212 | 0.00014808 |   0.0 |  0.01
Modify  | 0.42241    | 0.42274    | 0.42303    |   0.0 | 42.02
Other   |            | 0.003727   |            |       |  0.37

Nlocal:            540 ave         540 max         540 min
Histogram: 4 0 0 0 0 0 0 0 0 0
Nghost:           3047 ave        3050 max        3044 min
Histogram: 2 0 0 0 0 0 0 0 0 2
Neighs:        24285.2 ave       26020 max       22653 min
Histogram: 2 0 0 0 0 0 0 0 0 2

Total # of neighbors = 97141
Ave neighs/atom = 44.972685
Neighbor list builds = 217
Dangerous builds = 44
# --------------------------- Unfix --------------------------------------------

unfix fl6
unfix f6


#%*****************************************************************************%
variable    cntt equal ${cnt}+1
variable    cntt equal 48+1
variable    cnt  equal ${cntt}
variable    cnt  equal 49
next lam
jump SELF here
include    in.loop/loop
###%***************************************************************************%
###%    Created by:                                                           *%
###%    Nicodemo Di Pasquale                                                  *%
###%    Department of Mathematics                                             *%
###%    University of Leicester                                               *%
###%    24 March 2018                                                         *%
###%***************************************************************************%



variable lambda equal ${lam}
variable lambda equal 0.9990
variable minlam equal 1-${lam}
variable minlam equal 1-0.9990


print       "Forward Interaction ${cnt}: ${lambda} ${lam}"
Forward Interaction 49: 0.999 0.9990

# -------------------- Interactions --------------------------------------------

### Across cleaving plane interactions same phase

pair_coeff   1 5  ${epslj} ${siglj}  ${minlam} -1.0
pair_coeff   1 5  1 ${siglj}  ${minlam} -1.0
pair_coeff   1 5  1 1  ${minlam} -1.0
pair_coeff   1 5  1 1  0.001 -1.0
pair_coeff   1 6  ${epslj} ${siglj}  ${minlam} -1.0
pair_coeff   1 6  1 ${siglj}  ${minlam} -1.0
pair_coeff   1 6  1 1  ${minlam} -1.0
pair_coeff   1 6  1 1  0.001 -1.0
pair_coeff   2 7  ${epslj} ${siglj}  ${minlam} -1.0
pair_coeff   2 7  1 ${siglj}  ${minlam} -1.0
pair_coeff   2 7  1 1  ${minlam} -1.0
pair_coeff   2 7  1 1  0.001 -1.0
pair_coeff   2 8  ${epslj} ${siglj}  ${minlam} -1.0
pair_coeff   2 8  1 ${siglj}  ${minlam} -1.0
pair_coeff   2 8  1 1  ${minlam} -1.0
pair_coeff   2 8  1 1  0.001 -1.0
pair_coeff   3 7  ${epslj} ${siglj}  ${minlam} -1.0
pair_coeff   3 7  1 ${siglj}  ${minlam} -1.0
pair_coeff   3 7  1 1  ${minlam} -1.0
pair_coeff   3 7  1 1  0.001 -1.0
pair_coeff   3 8  ${epslj} ${siglj}  ${minlam} -1.0
pair_coeff   3 8  1 ${siglj}  ${minlam} -1.0
pair_coeff   3 8  1 1  ${minlam} -1.0
pair_coeff   3 8  1 1  0.001 -1.0
pair_coeff   4 5  ${epslj} ${siglj}  ${minlam} -1.0
pair_coeff   4 5  1 ${siglj}  ${minlam} -1.0
pair_coeff   4 5  1 1  ${minlam} -1.0
pair_coeff   4 5  1 1  0.001 -1.0
pair_coeff   4 6  ${epslj} ${siglj}  ${minlam} -1.0
pair_coeff   4 6  1 ${siglj}  ${minlam} -1.0
pair_coeff   4 6  1 1  ${minlam} -1.0
pair_coeff   4 6  1 1  0.001 -1.0

### Across cleaving plane interactions different phases

pair_coeff   1 2  ${epslj} ${siglj}  ${lambda} 1.0
pair_coeff   1 2  1 ${siglj}  ${lambda} 1.0
pair_coeff   1 2  1 1  ${lambda} 1.0
pair_coeff   1 2  1 1  0.999 1.0
pair_coeff   1 3  ${epslj} ${siglj}  ${lambda} 1.0
pair_coeff   1 3  1 ${siglj}  ${lambda} 1.0
pair_coeff   1 3  1 1  ${lambda} 1.0
pair_coeff   1 3  1 1  0.999 1.0
pair_coeff   2 4  ${epslj} ${siglj}  ${lambda} 1.0
pair_coeff   2 4  1 ${siglj}  ${lambda} 1.0
pair_coeff   2 4  1 1  ${lambda} 1.0
pair_coeff   2 4  1 1  0.999 1.0
pair_coeff   3 4  ${epslj} ${siglj}  ${lambda} 1.0
pair_coeff   3 4  1 ${siglj}  ${lambda} 1.0
pair_coeff   3 4  1 1  ${lambda} 1.0
pair_coeff   3 4  1 1  0.999 1.0

#--------------------------------------------------------------------

run   ${eqnts}
run   0
Generated 14 of 28 mixed pair_coeff terms from geometric mixing rule
Per MPI rank memory allocation (min/avg/max) = 7.575 | 7.576 | 7.576 Mbytes
   Step        c_Treal         v_PER         v_pressC       v_pressL      v_pressToT  
     48000   0.63271213    -7101.6001      4.8733871      4.4168856      4.6451363    
Loop time of 1.16675e-06 on 4 procs for 0 steps with 2160 atoms

85.7% CPU use with 4 MPI tasks x no OpenMP threads

MPI task timing breakdown:
Section |  min time  |  avg time  |  max time  |%varavg| %total
---------------------------------------------------------------
Pair    | 0          | 0          | 0          |   0.0 |  0.00
Neigh   | 0          | 0          | 0          |   0.0 |  0.00
Comm    | 0          | 0          | 0          |   0.0 |  0.00
Output  | 0          | 0          | 0          |   0.0 |  0.00
Modify  | 0          | 0          | 0          |   0.0 |  0.00
Other   |            | 1.167e-06  |            |       |100.00

Nlocal:            540 ave         540 max         540 min
Histogram: 4 0 0 0 0 0 0 0 0 0
Nghost:           3049 ave        3052 max        3046 min
Histogram: 2 0 0 0 0 0 0 0 0 2
Neighs:        24283.2 ave       26031 max       22572 min
Histogram: 2 0 0 0 0 0 0 0 0 2

Total # of neighbors = 97133
Ave neighs/atom = 44.968981
Neighbor list builds = 0
Dangerous builds = 0

fix   fl6 all ave/time ${Nevery} ${Nrepeat} ${Nfreq} v_lambda file dat/lambda.${cnt}.dat
fix   fl6 all ave/time 2 ${Nrepeat} ${Nfreq} v_lambda file dat/lambda.${cnt}.dat
fix   fl6 all ave/time 2 500 ${Nfreq} v_lambda file dat/lambda.${cnt}.dat
fix   fl6 all ave/time 2 500 1000 v_lambda file dat/lambda.${cnt}.dat
fix   fl6 all ave/time 2 500 1000 v_lambda file dat/lambda.49.dat
fix   f6 all ave/time ${Nevery} ${Nrepeat} ${Nfreq}  c_1[*] file dat/inters3.${cnt}.dat mode vector
fix   f6 all ave/time 2 ${Nrepeat} ${Nfreq}  c_1[*] file dat/inters3.${cnt}.dat mode vector
fix   f6 all ave/time 2 500 ${Nfreq}  c_1[*] file dat/inters3.${cnt}.dat mode vector
fix   f6 all ave/time 2 500 1000  c_1[*] file dat/inters3.${cnt}.dat mode vector
fix   f6 all ave/time 2 500 1000  c_1[*] file dat/inters3.49.dat mode vector

run   ${nts}
run   1000
Generated 14 of 28 mixed pair_coeff terms from geometric mixing rule
Per MPI rank memory allocation (min/avg/max) = 7.575 | 7.576 | 7.576 Mbytes
   Step        c_Treal         v_PER         v_pressC       v_pressL      v_pressToT  
     48000   0.63271213    -7101.6001      4.8733871      4.4168856      4.6451363    
     49000   0.63118737    -7143.4895      4.2195513      4.6177383      4.4186448    
Loop time of 0.926995 on 4 procs for 1000 steps with 2160 atoms

Performance: 466021.973 tau/day, 1078.755 timesteps/s, 2.330 Matom-step/s
99.6% CPU use with 4 MPI tasks x no OpenMP threads

MPI task timing breakdown:
Section |  min time  |  avg time  |  max time  |%varavg| %total
---------------------------------------------------------------
Pair    | 0.2774     | 0.30038    | 0.32555    |   3.8 | 32.40
Neigh   | 0.14552    | 0.15145    | 0.16059    |   1.6 | 16.34
Comm    | 0.023755   | 0.058229   | 0.086977   |  11.1 |  6.28
Output  | 0.00011583 | 0.00013286 | 0.00013912 |   0.0 |  0.01
Modify  | 0.41275    | 0.41331    | 0.41382    |   0.1 | 44.59
Other   |            | 0.00349    |            |       |  0.38

Nlocal:            540 ave         540 max         540 min
Histogram: 4 0 0 0 0 0 0 0 0 0
Nghost:           3052 ave        3052 max        3052 min
Histogram: 4 0 0 0 0 0 0 0 0 0
Neighs:        24250.2 ave       25999 max       22519 min
Histogram: 2 0 0 0 0 0 0 0 0 2

Total # of neighbors = 97001
Ave neighs/atom = 44.90787
Neighbor list builds = 154
Dangerous builds = 12
# --------------------------- Unfix --------------------------------------------

unfix fl6
unfix f6


#%*****************************************************************************%
variable    cntt equal ${cnt}+1
variable    cntt equal 49+1
variable    cnt  equal ${cntt}
variable    cnt  equal 50
next lam
jump SELF here
include    in.loop/loop
###%***************************************************************************%
###%    Created by:                                                           *%
###%    Nicodemo Di Pasquale                                                  *%
###%    Department of Mathematics                                             *%
###%    University of Leicester                                               *%
###%    24 March 2018                                                         *%
###%***************************************************************************%



variable lambda equal ${lam}
variable lambda equal 1.0000
variable minlam equal 1-${lam}
variable minlam equal 1-1.0000


print       "Forward Interaction ${cnt}: ${lambda} ${lam}"
Forward Interaction 50: 1 1.0000

# -------------------- Interactions --------------------------------------------

### Across cleaving plane interactions same phase

pair_coeff   1 5  ${epslj} ${siglj}  ${minlam} -1.0
pair_coeff   1 5  1 ${siglj}  ${minlam} -1.0
pair_coeff   1 5  1 1  ${minlam} -1.0
pair_coeff   1 5  1 1  0 -1.0
pair_coeff   1 6  ${epslj} ${siglj}  ${minlam} -1.0
pair_coeff   1 6  1 ${siglj}  ${minlam} -1.0
pair_coeff   1 6  1 1  ${minlam} -1.0
pair_coeff   1 6  1 1  0 -1.0
pair_coeff   2 7  ${epslj} ${siglj}  ${minlam} -1.0
pair_coeff   2 7  1 ${siglj}  ${minlam} -1.0
pair_coeff   2 7  1 1  ${minlam} -1.0
pair_coeff   2 7  1 1  0 -1.0
pair_coeff   2 8  ${epslj} ${siglj}  ${minlam} -1.0
pair_coeff   2 8  1 ${siglj}  ${minlam} -1.0
pair_coeff   2 8  1 1  ${minlam} -1.0
pair_coeff   2 8  1 1  0 -1.0
pair_coeff   3 7  ${epslj} ${siglj}  ${minlam} -1.0
pair_coeff   3 7  1 ${siglj}  ${minlam} -1.0
pair_coeff   3 7  1 1  ${minlam} -1.0
pair_coeff   3 7  1 1  0 -1.0
pair_coeff   3 8  ${epslj} ${siglj}  ${minlam} -1.0
pair_coeff   3 8  1 ${siglj}  ${minlam} -1.0
pair_coeff   3 8  1 1  ${minlam} -1.0
pair_coeff   3 8  1 1  0 -1.0
pair_coeff   4 5  ${epslj} ${siglj}  ${minlam} -1.0
pair_coeff   4 5  1 ${siglj}  ${minlam} -1.0
pair_coeff   4 5  1 1  ${minlam} -1.0
pair_coeff   4 5  1 1  0 -1.0
pair_coeff   4 6  ${epslj} ${siglj}  ${minlam} -1.0
pair_coeff   4 6  1 ${siglj}  ${minlam} -1.0
pair_coeff   4 6  1 1  ${minlam} -1.0
pair_coeff   4 6  1 1  0 -1.0

### Across cleaving plane interactions different phases

pair_coeff   1 2  ${epslj} ${siglj}  ${lambda} 1.0
pair_coeff   1 2  1 ${siglj}  ${lambda} 1.0
pair_coeff   1 2  1 1  ${lambda} 1.0
pair_coeff   1 2  1 1  1 1.0
pair_coeff   1 3  ${epslj} ${siglj}  ${lambda} 1.0
pair_coeff   1 3  1 ${siglj}  ${lambda} 1.0
pair_coeff   1 3  1 1  ${lambda} 1.0
pair_coeff   1 3  1 1  1 1.0
pair_coeff   2 4  ${epslj} ${siglj}  ${lambda} 1.0
pair_coeff   2 4  1 ${siglj}  ${lambda} 1.0
pair_coeff   2 4  1 1  ${lambda} 1.0
pair_coeff   2 4  1 1  1 1.0
pair_coeff   3 4  ${epslj} ${siglj}  ${lambda} 1.0
pair_coeff   3 4  1 ${siglj}  ${lambda} 1.0
pair_coeff   3 4  1 1  ${lambda} 1.0
pair_coeff   3 4  1 1  1 1.0

#--------------------------------------------------------------------

run   ${eqnts}
run   0
Generated 14 of 28 mixed pair_coeff terms from geometric mixing rule
Per MPI rank memory allocation (min/avg/max) = 7.575 | 7.576 | 7.576 Mbytes
   Step        c_Treal         v_PER         v_pressC       v_pressL      v_pressToT  
     49000   0.63118737    -7143.532       4.2193203      4.6175637      4.418442     
Loop time of 1.3335e-06 on 4 procs for 0 steps with 2160 atoms

75.0% CPU use with 4 MPI tasks x no OpenMP threads

MPI task timing breakdown:
Section |  min time  |  avg time  |  max time  |%varavg| %total
---------------------------------------------------------------
Pair    | 0          | 0          | 0          |   0.0 |  0.00
Neigh   | 0          | 0          | 0          |   0.0 |  0.00
Comm    | 0          | 0          | 0          |   0.0 |  0.00
Output  | 0          | 0          | 0          |   0.0 |  0.00
Modify  | 0          | 0          | 0          |   0.0 |  0.00
Other   |            | 1.333e-06  |            |       |100.00

Nlocal:            540 ave         540 max         540 min
Histogram: 4 0 0 0 0 0 0 0 0 0
Nghost:           3052 ave        3052 max        3052 min
Histogram: 4 0 0 0 0 0 0 0 0 0
Neighs:          24234 ave       25963 max       22506 min
Histogram: 2 0 0 0 0 0 0 0 0 2

Total # of neighbors = 96936
Ave neighs/atom = 44.877778
Neighbor list builds = 0
Dangerous builds = 0

fix   fl6 all ave/time ${Nevery} ${Nrepeat} ${Nfreq} v_lambda file dat/lambda.${cnt}.dat
fix   fl6 all ave/time 2 ${Nrepeat} ${Nfreq} v_lambda file dat/lambda.${cnt}.dat
fix   fl6 all ave/time 2 500 ${Nfreq} v_lambda file dat/lambda.${cnt}.dat
fix   fl6 all ave/time 2 500 1000 v_lambda file dat/lambda.${cnt}.dat
fix   fl6 all ave/time 2 500 1000 v_lambda file dat/lambda.50.dat
fix   f6 all ave/time ${Nevery} ${Nrepeat} ${Nfreq}  c_1[*] file dat/inters3.${cnt}.dat mode vector
fix   f6 all ave/time 2 ${Nrepeat} ${Nfreq}  c_1[*] file dat/inters3.${cnt}.dat mode vector
fix   f6 all ave/time 2 500 ${Nfreq}  c_1[*] file dat/inters3.${cnt}.dat mode vector
fix   f6 all ave/time 2 500 1000  c_1[*] file dat/inters3.${cnt}.dat mode vector
fix   f6 all ave/time 2 500 1000  c_1[*] file dat/inters3.50.dat mode vector

run   ${nts}
run   1000
Generated 14 of 28 mixed pair_coeff terms from geometric mixing rule
Per MPI rank memory allocation (min/avg/max) = 7.575 | 7.576 | 7.576 Mbytes
   Step        c_Treal         v_PER         v_pressC       v_pressL      v_pressToT  
     49000   0.63118737    -7143.532       4.2193203      4.6175637      4.418442     
     50000   0.66329346    -7154.5807      4.4630327      4.3472612      4.405147     
Loop time of 0.912202 on 4 procs for 1000 steps with 2160 atoms

Performance: 473579.058 tau/day, 1096.248 timesteps/s, 2.368 Matom-step/s
99.6% CPU use with 4 MPI tasks x no OpenMP threads

MPI task timing breakdown:
Section |  min time  |  avg time  |  max time  |%varavg| %total
---------------------------------------------------------------
Pair    | 0.27784    | 0.3012     | 0.32405    |   4.0 | 33.02
Neigh   | 0.1305     | 0.13605    | 0.14341    |   1.5 | 14.91
Comm    | 0.026372   | 0.056284   | 0.085273   |  11.3 |  6.17
Output  | 0.00013342 | 0.00016027 | 0.00016996 |   0.0 |  0.02
Modify  | 0.41449    | 0.41498    | 0.41549    |   0.1 | 45.49
Other   |            | 0.003528   |            |       |  0.39

Nlocal:            540 ave         540 max         540 min
Histogram: 4 0 0 0 0 0 0 0 0 0
Nghost:           3051 ave        3054 max        3048 min
Histogram: 2 0 0 0 0 0 0 0 0 2
Neighs:        24273.8 ave       26180 max       22605 min
Histogram: 2 0 0 0 0 0 0 0 1 1

Total # of neighbors = 97095
Ave neighs/atom = 44.951389
Neighbor list builds = 138
Dangerous builds = 9
# --------------------------- Unfix --------------------------------------------

unfix fl6
unfix f6


#%*****************************************************************************%
variable    cntt equal ${cnt}+1
variable    cntt equal 50+1
variable    cnt  equal ${cntt}
variable    cnt  equal 51
next lam
jump SELF here

write_data  Fstep3.${cnt}.data  nocoeff
write_data  Fstep3.51.data  nocoeff
System init for write_data ...
Generated 14 of 28 mixed pair_coeff terms from geometric mixing rule
Total wall time: 0:00:48
