 LAMMPS data file 

        1080  atoms
 4 atom types

  0.00000000     5.51124331      xlo xhi
  0.00000000     5.72745206      ylo yhi
  0.00000000    32.39936152      zlo zhi

 Atoms # atomic

    1       1  0.959579     0.467249     0.375702
    2       1  0.285092     1.427042     0.502078
    3       1  2.024865     0.358278     0.482166
    4       1  1.373811     1.458632     0.531778
    5       1  3.089942     0.468391     0.371980
    6       1  2.481667     1.373783     0.382060
    7       1  4.118163     0.432786     0.478477
    8       1  3.545739     1.421054     0.429641
    9       1  5.305898     0.497136     0.464424
   10       1  4.664311     1.481254     0.411373
   11       1  0.784598     2.405015     0.462905
   12       1  1.883496     2.473081     0.495371
   13       1  3.022077     2.347768     0.494463
   14       1  4.110306     2.366673     0.404960
   15       1  5.162848     2.429952     0.465929
   16       1  0.309379     0.802371     1.330653
   17       1  0.954250     1.790116     1.369823
   18       1  1.395651     0.773580     1.326116
   19       1  1.967728     1.835728     1.364442
   20       1  2.470417     0.788458     1.324809
   21       1  3.036114     1.706781     1.403249
   22       1  3.644285     0.807566     1.360592
   23       1  4.144933     1.723630     1.271566
   24       1  4.685017     0.775740     1.314997
   25       1  5.227330     1.805727     1.260634
   26       1  2.439184     2.041041     4.901739
   27       1  4.819429     0.241016     2.190619
   28       1  4.725840     2.043251     4.959068
   29       1  0.319796     0.043736     4.855154
   30       1  4.587920     0.056071     4.847787
   31       1  2.477043     0.192182     4.863526
   32       1  0.925029     1.111148     2.203125
   33       1  0.433391     2.687753     4.015048
   34       1  2.038314     1.169216     2.251401
   35       1  1.426178     2.692424     4.032517
   36       1  3.134958     1.065365     2.215171
   37       1  0.334317     2.683471     1.295714
   38       1  4.246501     1.186087     2.263475
   39       1  3.654908     2.023937     5.037013
   40       1  5.439726     1.226915     2.212533
   41       1  0.395179     2.092762     2.204549
   42       1  1.386917     1.993328     2.257700
   43       1  2.472330     2.064490     2.217290
   44       1  3.676293     2.053757     2.297401
   45       1  4.746881     2.121402     2.262613
   46       1  0.998048     0.371687     3.222344
   47       1  0.366576     1.361556     3.122117
   48       1  1.992903     0.467877     3.100026
   49       1  1.449286     1.288659     3.144284
   50       1  3.051696     0.473392     3.149591
   51       1  2.641945     1.434564     3.107341
   52       1  4.192220     0.478726     3.273524
   53       1  3.702802     1.437789     3.241205
   54       1  5.354938     0.477314     3.081541
   55       1  4.794596     1.440110     3.125254
   56       1  0.944508     2.304978     3.175877
   57       1  1.974113     2.310371     3.123784
   58       1  3.033151     2.458670     3.121839
   59       1  4.297517     2.394224     3.205871
   60       1  5.457014     2.449300     3.039929
   61       1  0.297800     0.779292     4.088264
   62       1  0.848371     1.734876     3.982157
   63       1  1.387534     0.844150     4.207877
   64       1  1.972757     1.754790     4.071951
   65       1  2.487319     0.827572     3.972439
   66       1  3.087011     1.789101     4.035915
   67       1  3.633825     0.761776     4.086107
   68       1  4.212858     1.738197     4.172358
   69       1  4.693941     0.812041     4.060135
   70       1  5.227800     1.832603     4.009128
   71       1  0.363499     0.219898     2.277776
   72       1  2.593710     2.722582     1.354419
   73       1  1.460525     2.773479     1.398517
   74       1  1.471339     0.104365     2.256970
   75       1  3.710159     2.751597     4.091813
   76       1  2.535926     0.221346     2.275183
   77       1  0.777497     1.021097     4.976145
   78       1  2.529950     2.755973     4.064423
   79       1  2.085552     1.134054     5.021057
   80       1  4.652554     2.644378     1.422518
   81       1  3.151413     1.115338     4.908362
   82       1  3.601882     2.614602     1.283499
   83       1  4.143715     1.080266     5.086845
   84       1  1.343639     1.946948     4.905149
   85       1  5.189126     1.112419     4.979292
   86       1  0.324260     2.043627     4.965302
   87       1  3.544381     0.122185     4.956927
   88       1  3.717982     0.246795     2.350233
   89       1  1.360286     0.197321     5.008470
   90       1  4.787553     2.761900     4.075506
   91       1  0.218965     3.353081     0.414983
   92       1  1.269126     3.339288     0.518223
   93       1  2.535121     3.336839     0.454293
   94       1  3.617199     3.293568     0.522893
   95       1  4.678732     3.345156     0.499472
   96       1  0.807802     4.354818     0.428706
   97       1  0.276737     5.271576     0.518987
   98       1  1.865191     4.231697     0.495778
   99       1  1.420684     5.165681     0.400426
  100       1  3.030146     4.295774     0.459125
  101       1  2.493823     5.169128     0.599874
  102       1  4.231868     4.331254     0.451816
  103       1  3.536555     5.325306     0.492896
  104       1  5.240424     4.259309     0.418483
  105       1  4.733369     5.275114     0.507513
  106       1  0.852374     3.742041     1.418398
  107       1  1.961149     3.684741     1.419394
  108       1  3.060114     3.678982     1.350369
  109       1  4.146547     3.698990     1.309518
  110       1  5.229235     3.618060     1.351154
  111       1  0.325990     4.630571     1.327941
  112       1  1.965322     2.958800     4.966338
  113       1  1.431851     4.608835     1.399368
  114       1  0.919277     2.994061     4.946285
  115       1  2.515017     4.558963     1.429730
  116       1  5.315851     4.873341     4.882807
  117       1  3.607839     4.648536     1.289935
  118       1  3.027360     5.542144     4.005152
  119       1  4.695511     4.613398     1.335004
  120       1  1.931230     5.475333     1.350781
  121       1  4.137510     2.986263     2.279592
  122       1  4.200429     2.955014     4.969977
  123       1  3.100972     5.695668     1.348087
  124       1  5.140644     5.622018     4.020744
  125       1  0.828574     5.507216     4.034905
  126       1  0.278892     4.045872     2.184362
  127       1  0.911535     4.947297     2.218951
  128       1  1.405802     3.905310     2.262315
  129       1  1.983656     4.896547     2.329207
  130       1  2.583224     3.961074     2.290036
  131       1  3.129126     4.977808     2.229589
  132       1  3.711738     4.055614     2.247667
  133       1  4.128618     5.000675     2.231455
  134       1  4.658034     3.953887     2.248835
  135       1  5.333778     4.999805     2.151774
  136       1  0.441648     3.391254     3.123428
  137       1  1.482891     3.284332     3.081918
  138       1  2.505239     3.286855     3.121010
  139       1  3.619570     3.428651     3.192995
  140       1  4.815521     3.319200     3.122194
  141       1  0.958959     4.263621     3.080030
  142       1  0.294753     5.109925     3.094262
  143       1  2.002750     4.176682     3.170636
  144       1  1.380817     5.221942     3.176333
  145       1  3.044138     4.387909     3.121724
  146       1  2.496909     5.339497     3.175886
  147       1  4.241242     4.298086     3.186486
  148       1  3.656915     5.194776     3.135857
  149       1  5.331630     4.253599     3.090168
  150       1  4.799316     5.297351     3.093364
  151       1  0.942844     3.630224     3.989952
  152       1  1.996560     3.654977     4.004177
  153       1  3.097648     3.600335     4.108802
  154       1  4.271844     3.719221     4.032034
  155       1  5.363826     3.595653     4.055552
  156       1  0.323868     4.553233     4.020469
  157       1  5.324419     2.958429     2.150557
  158       1  1.385197     4.621512     3.959078
  159       1  2.021014     2.983351     2.229877
  160       1  2.433073     4.653871     4.054511
  161       1  5.352004     3.010780     4.915200
  162       1  3.484854     4.641145     4.111043
  163       1  4.724269     4.017151     4.900777
  164       1  4.691515     4.756089     4.053948
  165       1  0.873430     3.005191     2.199262
  166       1  5.232896     5.582847     1.298231
  167       1  3.084210     3.031006     4.941264
  168       1  4.099161     4.894714     5.006534
  169       1  0.859860     5.550060     1.362093
  170       1  1.894556     5.566316     4.046761
  171       1  0.404910     3.967017     4.887197
  172       1  0.857481     4.857548     4.834706
  173       1  1.477940     3.929610     4.830608
  174       1  1.898359     4.982988     4.909369
  175       1  2.638707     4.000915     4.922869
  176       1  3.043729     4.960262     4.927560
  177       1  3.694208     3.967824     5.026513
  178       1  4.070942     5.549833     4.000912
  179       1  3.096084     3.108527     2.249980
  180       1  4.237173     5.563503     1.340471
  181       1  0.931341     0.513055     5.908004
  182       1  0.283544     1.595001     5.865115
  183       1  1.952822     0.505205     5.901526
  184       1  1.399439     1.493075     5.854401
  185       1  3.146210     0.511306     5.906298
  186       1  2.611936     1.463413     5.819188
  187       1  4.171326     0.383943     5.851456
  188       1  3.695550     1.455499     5.944340
  189       1  5.351861     0.462022     5.824276
  190       1  4.714751     1.452167     5.919363
  191       1  0.929352     2.458333     5.882503
  192       1  1.990220     2.284887     5.753219
  193       1  3.104298     2.329486     5.837114
  194       1  4.295233     2.379478     5.889652
  195       1  5.274119     2.487103     5.876235
  196       1  0.321421     0.838267     6.670925
  197       1  0.958514     1.828452     6.732431
  198       1  1.446464     0.833127     6.728189
  199       1  1.988251     1.762236     6.753077
  200       1  2.493092     0.814478     6.771397
  201       1  3.080020     1.800616     6.792030
  202       1  3.690254     0.865582     6.820018
  203       1  4.203722     1.835416     6.871004
  204       1  4.739990     0.810784     6.766302
  205       1  5.315310     1.750708     6.790880
  206       1  1.446304     0.275692     7.598484
  207       1  0.279100     0.214313     7.532701
  208       1  0.767248     1.129295     7.553192
  209       1  2.005782     1.147406     7.572207
  210       1  3.088622     1.000098     7.669708
  211       1  1.495032     2.804723     6.697300
  212       1  4.172536     1.132348     7.687783
  213       1  5.228433     1.114554     7.647633
  214       1  0.316768     2.112381     7.590783
  215       1  1.437229     2.184250     7.591064
  216       1  2.560850     2.047288     7.672094
  217       1  3.662064     2.100989     7.693843
  218       1  4.730963     2.106540     7.720830
  219       1  2.561865     2.664716     6.790098
  220       1  3.665060     2.765185     6.731239
  221       1  3.627435     0.139493     7.724766
  222       1  4.801708     2.695388     6.783918
  223       1  4.740125     0.161937     7.621031
  224       1  0.367822     2.768984     6.777445
  225       1  2.500530     0.192574     7.660053
  226       1  0.343204     3.477998     5.806490
  227       1  1.478904     3.343067     5.814074
  228       1  2.645145     3.320474     5.802291
  229       1  3.615035     3.306417     5.859748
  230       1  4.669448     3.413405     5.771287
  231       1  0.937482     4.274017     5.675414
  232       1  0.504244     5.299178     5.750056
  233       1  2.015286     4.293914     5.875137
  234       1  1.519367     5.321225     5.828972
  235       1  2.982235     4.320612     5.951218
  236       1  2.563387     5.362790     5.777211
  237       1  4.280059     4.362168     5.940822
  238       1  3.590867     5.130892     5.952772
  239       1  5.366191     4.339270     5.736863
  240       1  4.761997     5.248939     5.770011
  241       1  0.947003     3.691381     6.672655
  242       1  2.012433     3.754396     6.821996
  243       1  3.084911     3.612661     6.777380
  244       1  4.319691     3.629312     6.754884
  245       1  5.343987     3.691534     6.799550
  246       1  0.317102     4.599449     6.645922
  247       1  3.088701     5.647742     6.867189
  248       1  1.424478     4.613926     6.595690
  249       1  5.322820     3.043497     7.643755
  250       1  2.510400     4.627362     6.803060
  251       1  0.801529     3.041402     7.641648
  252       1  3.566318     4.586066     6.876612
  253       1  0.970836     5.539802     6.740572
  254       1  4.780985     4.607726     6.807670
  255       1  2.046231     5.542659     6.754763
  256       1  2.027584     3.012239     7.627203
  257       1  0.365316     4.075412     7.605910
  258       1  0.943811     5.002788     7.643597
  259       1  1.432855     4.136634     7.578133
  260       1  2.089919     4.916119     7.728383
  261       1  2.497465     3.931818     7.744760
  262       1  3.205424     4.925580     7.771782
  263       1  3.759604     3.882859     7.653826
  264       1  4.243738     4.956864     7.605776
  265       1  4.826420     4.016644     7.681432
  266       1  5.321260     5.007940     7.620234
  267       1  5.212614     5.577366     6.645533
  268       1  4.149914     5.548650     6.754702
  269       1  4.250078     3.020529     7.626183
  270       1  3.127259     2.938960     7.649194
  271       2  2.463343     0.151684    10.307650
  272       2  1.346745     0.813727     9.475299
  273       2  2.476089     0.774319     9.508654
  274       2  3.561746     0.789300     9.447044
  275       2  4.770127     0.876739     9.461190
  276       2  3.080153     1.000220    10.412782
  277       2  4.747738     2.734973     9.547436
  278       2  5.276041     1.083445    10.369995
  279       2  3.734952     2.640877     9.480770
  280       2  4.191596     1.072372    10.340066
  281       2  3.686724     1.966073    10.412048
  282       2  0.924350     1.083118    10.329651
  283       2  2.505964     1.434151     8.520695
  284       2  5.252793     0.529919     8.559803
  285       2  4.654844     0.157770    10.392642
  286       2  1.960565     0.501877     8.644724
  287       2  0.924007     0.545951     8.514042
  288       2  0.297656     1.481596     8.477517
  289       2  5.281191     2.401784     8.590014
  290       2  1.444587     1.472793     8.425333
  291       2  0.770559     2.407548     8.470505
  292       2  1.931253     2.360663     8.638033
  293       2  3.563230     1.443691     8.548516
  294       2  3.063070     2.393974     8.594652
  295       2  4.701554     1.485125     8.577492
  296       2  4.214077     2.391479     8.593238
  297       2  1.427876     2.764655     9.387483
  298       2  5.286539     1.751815     9.476518
  299       2  0.811780     1.817772     9.374574
  300       2  1.949021     1.737052     9.425984
  301       2  0.312949     2.772818     9.447429
  302       2  3.104842     1.663245     9.525098
  303       2  3.054843     0.494673     8.579908
  304       2  4.117543     1.697033     9.404284
  305       2  0.276481     0.090595    10.406361
  306       2  0.292670     0.839703     9.489018
  307       2  2.574646     1.927270    10.351809
  308       2  4.724475     2.037210    10.418042
  309       2  4.131108     0.503213     8.655258
  310       2  0.289664     2.038306    10.335333
  311       2  1.960269     1.118737    10.323277
  312       2  1.465983     2.126997    10.251491
  313       2  2.563094     2.664663     9.518197
  314       2  3.591969     0.157073    10.401573
  315       2  1.416629     0.194976    10.353803
  316       2  0.808410     3.754884     9.423999
  317       2  0.880862     5.664045     9.433816
  318       2  0.349516     3.954921    10.261426
  319       2  2.514253     3.313859     8.553415
  320       2  4.108891     5.558924     9.541463
  321       2  4.741722     3.361220     8.507351
  322       2  5.180460     3.794275     9.488824
  323       2  4.195316     4.911782    10.441485
  324       2  4.155203     2.950778    10.372303
  325       2  4.636872     3.907021    10.367429
  326       2  0.905559     4.916504    10.462877
  327       2  1.986392     4.307193     8.651530
  328       2  1.980975     4.841789    10.340421
  329       2  4.181485     3.616912     9.433106
  330       2  5.259539     4.882331    10.399410
  331       2  2.513725     3.898693    10.399337
  332       2  0.359613     3.420125     8.582812
  333       2  3.592862     3.312843     8.519398
  334       2  1.409784     3.351479     8.496137
  335       2  5.294197     4.358046     8.608122
  336       2  0.867452     4.310697     8.527342
  337       2  3.174227     4.248374     8.698296
  338       2  4.275449     4.414686     8.517894
  339       2  0.309138     5.329372     8.630695
  340       2  1.330245     5.313406     8.612727
  341       2  2.514186     5.263887     8.737207
  342       2  3.691724     4.555931     9.599787
  343       2  4.689195     5.418038     8.547503
  344       2  2.005987     3.030958    10.350432
  345       2  0.393164     4.720151     9.525054
  346       2  1.428207     4.645020     9.477361
  347       2  2.616068     4.529812     9.526441
  348       2  3.618947     5.276402     8.609242
  349       2  4.717799     4.667571     9.490769
  350       2  5.233243     5.647806     9.515163
  351       2  3.565222     3.843432    10.401705
  352       2  2.001331     3.656226     9.395785
  353       2  3.070930     3.587308     9.421625
  354       2  3.056252     4.957134    10.464349
  355       2  1.406271     3.897460    10.274250
  356       2  1.918240     5.623074     9.506340
  357       2  3.030742     5.539759     9.610032
  358       2  5.155140     3.060303    10.430538
  359       2  0.939126     2.963404    10.238193
  360       2  3.114103     2.833398    10.438477
  361       2  5.266576     1.680492    11.305730
  362       2  0.235552     1.445893    13.056419
  363       2  0.841831     1.820312    11.152560
  364       2  0.197675     2.687124    15.635590
  365       2  1.974063     1.656370    11.252096
  366       2  3.039810     1.741219    13.983260
  367       2  3.048340     1.637744    11.218129
  368       2  4.136814     2.361614    14.849661
  369       2  4.172172     1.604047    11.314819
  370       2  4.241936     1.046145    12.221960
  371       2  0.787399     1.720620    15.753267
  372       2  4.733967     1.451186    13.106508
  373       2  5.166538     2.372574    14.778002
  374       2  1.397554     2.026550    12.060051
  375       2  5.171109     1.804687    15.741409
  376       2  5.293205     1.099072    12.167832
  377       2  4.102849     1.714520    14.031746
  378       2  0.826521     1.114013    12.074111
  379       2  2.471955     2.002853    12.089266
  380       2  2.087190     1.040786    12.121255
  381       2  4.665523     0.707250    11.307208
  382       2  3.118221     1.035911    12.170191
  383       2  0.296108     2.070174    12.161920
  384       2  0.820909     2.256547    14.882030
  385       2  0.813008     1.684198    14.003679
  386       2  4.643335     2.664781    15.836164
  387       2  3.403584     0.747993    15.813107
  388       2  2.491736     0.714883    11.207045
  389       2  0.864149     2.362474    13.071546
  390       2  1.324928     2.686682    13.979654
  391       2  1.299053     2.709099    15.712594
  392       2  5.265754     0.482702    13.071909
  393       2  1.839060     1.690780    15.798516
  394       2  0.795468     0.443651    12.944299
  395       2  2.346384     2.628394    13.880238
  396       2  1.971529     0.368483    13.026288
  397       2  4.690176     1.912496    12.165271
  398       2  3.553266     0.751525    13.950472
  399       2  1.246806     0.676174    15.820138
  400       2  4.195101     0.362622    13.108746
  401       2  0.347942     0.851604    11.177025
  402       2  1.418336     1.324893    12.953201
  403       2  2.909430     1.724837    15.739423
  404       2  3.002826     0.378578    13.057919
  405       2  1.873997     2.305382    12.993708
  406       2  2.972882     2.386226    14.842197
  407       2  4.656698     0.672953    13.899407
  408       2  4.695500     2.607826    11.361353
  409       2  0.323441     0.738959    13.917690
  410       2  4.684870     0.103080    12.219026
  411       2  1.357875     0.780960    13.845055
  412       2  3.510604     2.026799    12.191699
  413       2  2.424820     0.741178    13.960508
  414       2  2.943414     2.271550    13.059144
  415       2  3.587823     1.341483    13.016773
  416       2  2.510391     1.304214    13.030970
  417       2  0.249628     2.700858    11.315535
  418       2  4.075283     1.681923    15.771206
  419       2  2.364403     0.786596    15.786703
  420       2  1.954945     1.622353    13.879890
  421       2  5.141954     0.395720    14.828230
  422       2  0.172017     1.290484    14.948729
  423       2  0.653067     0.376614    14.874126
  424       2  1.280538     1.291620    14.961119
  425       2  1.827676     0.435879    14.819990
  426       2  2.421157     1.372914    14.812826
  427       2  2.955094     0.407782    14.806735
  428       2  3.515547     1.338008    14.927866
  429       2  4.124535     0.343274    14.877935
  430       2  4.642672     1.271150    14.757182
  431       2  3.497346     2.633762    13.897809
  432       2  2.437102     2.639934    15.718012
  433       2  4.667588     0.761937    15.712228
  434       2  5.283700     1.615768    13.966692
  435       2  1.446394     0.867521    11.253958
  436       2  0.156493     0.753478    15.807497
  437       2  3.483810     2.647573    15.771766
  438       2  3.585000     0.767396    11.251717
  439       2  1.920016     2.291671    14.816589
  440       2  1.362941     2.763394    11.129238
  441       2  5.218943     2.392610    12.986702
  442       2  2.473844     5.694258    12.209734
  443       2  4.076981     2.328768    12.975251
  444       2  2.421645     2.613538    11.214275
  445       2  4.598257     2.537219    13.858978
  446       2  1.396403     0.200268    12.203200
  447       2  0.198922     2.595573    13.929071
  448       2  3.548683     2.586307    11.257254
  449       2  0.275734     0.130996    12.115033
  450       2  3.617231     0.106947    12.264488
  451       2  0.817681     3.702966    11.192700
  452       2  0.331129     4.565245    11.305662
  453       2  1.436003     4.610866    11.254367
  454       2  2.465346     4.559550    11.296098
  455       2  3.680818     4.539523    11.254423
  456       2  1.284953     4.565417    15.638667
  457       2  2.813377     5.602175    15.715605
  458       2  4.246504     4.821355    12.207046
  459       2  0.877571     4.925707    12.119696
  460       2  1.234140     4.607381    13.898289
  461       2  5.169899     5.548605    15.667433
  462       2  4.772165     5.274249    13.030747
  463       2  0.804279     4.216671    13.045565
  464       2  4.097661     2.923505    12.149069
  465       2  1.941566     3.676953    11.210452
  466       2  0.332091     3.894475    12.184297
  467       2  1.364423     3.957522    12.166191
  468       2  2.511515     3.931867    12.126257
  469       2  3.552370     3.858728    12.159878
  470       2  4.684037     3.855878    12.166190
  471       2  0.195901     4.578261    15.749408
  472       2  3.032984     4.211186    14.837495
  473       2  4.182069     3.515657    11.251715
  474       2  2.106762     5.515189    11.275668
  475       2  5.256363     3.677047    11.292670
  476       2  4.060409     4.143527    13.074834
  477       2  4.686725     5.132991    14.791781
  478       2  4.155499     5.423269    11.357979
  479       2  3.461472     4.452815    15.740425
  480       2  0.297897     5.236002    13.056052
  481       2  0.791837     5.570134    13.982560
  482       2  3.100816     5.531044    11.358833
  483       2  3.015103     2.977036    12.122923
  484       2  4.130489     5.487034    13.871127
  485       2  0.204003     5.143249    14.886637
  486       2  3.477050     3.197573    13.032933
  487       2  1.882539     4.293438    13.090922
  488       2  0.317590     3.356112    13.096846
  489       2  4.585355     4.531175    15.774484
  490       2  1.402249     3.277201    12.979607
  491       2  5.240199     4.956318    12.202548
  492       2  2.425857     3.257214    13.019913
  493       2  0.141958     4.521967    13.879303
  494       2  5.258683     2.989178    12.164306
  495       2  3.627334     5.133185    13.014467
  496       2  1.354924     5.171768    13.010234
  497       2  2.578359     5.154363    13.122707
  498       2  5.221343     3.577671    15.742261
  499       2  3.074115     4.769886    12.072890
  500       2  4.145424     3.538687    13.933921
  501       2  5.202330     3.539775    13.955259
  502       2  2.352229     4.565171    15.837837
  503       2  0.782629     3.550148    13.952533
  504       2  1.375194     5.228036    14.854885
  505       2  1.804899     3.626309    13.981529
  506       2  3.521960     4.554469    13.937014
  507       2  2.949453     3.563027    13.918987
  508       2  5.191796     5.513953    13.894789
  509       2  4.725833     3.296909    13.019747
  510       2  4.720930     4.563344    11.310556
  511       2  0.301782     3.300454    14.881856
  512       2  1.309924     3.271595    14.848566
  513       2  2.852007     3.672889    15.798766
  514       2  3.496964     3.272384    14.766842
  515       2  4.609205     3.272585    14.862926
  516       2  5.167586     4.186978    14.786464
  517       2  2.439848     4.482562    13.961607
  518       2  0.771113     4.288545    14.756544
  519       2  1.894202     5.482665    13.966395
  520       2  1.905679     4.289205    14.767501
  521       2  4.612949     4.512237    13.821247
  522       2  5.246548     5.550691    11.281682
  523       2  4.143768     3.590647    15.780691
  524       2  4.028554     4.171060    14.777945
  525       2  2.379492     3.262571    14.875242
  526       2  3.082042     3.579204    11.233463
  527       2  1.840308     3.610347    15.713394
  528       2  0.776873     3.590590    15.801566
  529       2  2.958248     4.198149    12.991896
  530       2  1.954450     4.837826    12.211262
  531       2  0.718900     5.524565    15.666703
  532       2  2.952190     5.541374    13.993087
  533       2  5.220909     4.284646    12.982008
  534       2  2.480614     5.188441    14.907986
  535       2  3.594023     5.134811    14.791534
  536       2  0.894060     5.628981    11.297791
  537       2  1.777382     5.466070    15.816858
  538       2  3.936480     5.450875    15.765516
  539       2  0.850584     2.936400    12.077357
  540       2  1.896009     3.044234    12.085456
  541       3  2.944784     0.418711    20.231501
  542       3  0.746899     0.380028    16.625442
  543       3  0.759367     2.387421    18.521397
  544       3  1.817307     0.382249    16.695023
  545       3  4.640421     0.822249    19.330011
  546       3  2.958462     0.456800    16.658632
  547       3  4.073732     2.393729    16.605704
  548       3  1.346302     2.681157    21.147110
  549       3  4.012845     0.425065    16.694342
  550       3  5.116884     0.468196    16.621479
  551       3  1.427795     1.431261    16.687363
  552       3  4.622699     2.023474    17.514141
  553       3  3.630295     1.366162    16.666788
  554       3  4.704680     1.469961    16.582055
  555       3  0.253171     1.469549    16.660449
  556       3  3.571328     0.800849    19.359435
  557       3  0.835766     1.104559    17.563040
  558       3  0.261049     0.811359    19.362099
  559       3  1.999586     1.110256    17.612962
  560       3  2.998560     2.477544    16.623083
  561       3  3.064892     1.111264    17.456499
  562       3  2.489753     1.417937    16.675499
  563       3  1.941539     2.377530    16.578703
  564       3  3.502092     2.794122    21.122949
  565       3  5.237753     1.104764    17.594291
  566       3  2.968532     2.403007    20.278415
  567       3  4.066416     2.389664    18.354057
  568       3  0.147634     2.670397    21.075937
  569       3  5.052065     1.748084    21.111793
  570       3  4.210508     0.954460    17.495584
  571       3  1.357844     0.833631    19.298546
  572       3  0.712700     0.467587    18.466455
  573       3  1.870546     0.500366    20.223406
  574       3  1.883985     0.439249    18.413160
  575       3  0.579311     1.701336    21.033608
  576       3  2.984290     0.533432    18.466820
  577       3  4.021346     0.364011    20.215384
  578       3  4.033337     0.436518    18.493130
  579       3  5.164021     2.426930    20.277301
  580       3  5.166313     0.396590    18.352251
  581       3  0.270779     1.412903    18.413911
  582       3  1.448820     1.454591    18.476772
  583       3  2.504461     1.424957    18.409533
  584       3  3.641328     1.473899    18.327655
  585       3  4.633809     1.418023    18.481108
  586       3  1.323851     0.718224    21.069484
  587       3  0.756256     1.778254    19.449943
  588       3  3.525089     2.043824    17.428270
  589       3  1.912465     1.809174    19.310260
  590       3  3.556889     0.819473    21.284649
  591       3  3.034462     1.831563    19.339755
  592       3  0.753136     2.488505    20.331210
  593       3  4.045489     1.763321    19.275958
  594       3  0.727180     0.437119    20.192597
  595       3  5.101072     1.655592    19.360358
  596       3  4.684276     0.071058    17.507528