LAMMPS (2 Aug 2023)
Reading data file ...
  orthogonal box = (0 0 0) to (5.5112433 5.7274521 16.199681)
  1 by 1 by 4 MPI processor grid
  reading atoms ...
  540 atoms
  reading velocities ...
  540 velocities
  read_data CPU = 0.005 seconds
Wall Position 1.14
Generated 0 of 1 mixed pair_coeff terms from geometric mixing rule
Neighbor list info ...
  update: every = 1 steps, delay = 0 steps, check = yes
  max neighbors/atom: 2000, page size: 100000
  master list distance cutoff = 2.8
  ghost atom cutoff = 2.8
  binsize = 1.4, bins = 4 5 12
  1 neighbor lists, perpetual/occasional/extra = 1 0 0
  (1) pair lj/BG, perpetual
      attributes: half, newton on
      pair build: half/bin/atomonly/newton
      stencil: half/bin/3d
      bin: standard
Setting up Verlet run ...
  Unit style    : lj
  Current step  : 0
  Time step     : 0.005
Per MPI rank memory allocation (min/avg/max) = 3.001 | 3.002 | 3.003 Mbytes
   Step          Temp          E_pair         E_mol          TotEng         Press     
         0   1.6367176     -5.1116674      0             -2.6611375      13.679919    
Loop time of 1.1145e-06 on 4 procs for 0 steps with 540 atoms

44.9% CPU use with 4 MPI tasks x no OpenMP threads

MPI task timing breakdown:
Section |  min time  |  avg time  |  max time  |%varavg| %total
---------------------------------------------------------------
Pair    | 0          | 0          | 0          |   0.0 |  0.00
Neigh   | 0          | 0          | 0          |   0.0 |  0.00
Comm    | 0          | 0          | 0          |   0.0 |  0.00
Output  | 0          | 0          | 0          |   0.0 |  0.00
Modify  | 0          | 0          | 0          |   0.0 |  0.00
Other   |            | 1.114e-06  |            |       |100.00

Nlocal:            135 ave         140 max         130 min
Histogram: 1 0 1 0 0 0 0 0 1 1
Nghost:         1171.5 ave        1182 max        1150 min
Histogram: 1 0 0 0 0 0 0 1 0 2
Neighs:        6357.25 ave        6711 max        6029 min
Histogram: 1 0 0 1 0 1 0 0 0 1

Total # of neighbors = 25429
Ave neighs/atom = 47.090741
Neighbor list builds = 0
Dangerous builds = 0
Generated 0 of 1 mixed pair_coeff terms from geometric mixing rule
Setting up Verlet run ...
  Unit style    : lj
  Current step  : 0
  Time step     : 0.005
Per MPI rank memory allocation (min/avg/max) = 3.001 | 3.002 | 3.003 Mbytes
   Step          Temp          E_pair         E_mol          TotEng         Press     
         0   1.6367176     -5.1116674      0             -2.6611375      13.679919    
      1000   0.62728415    -6.6217621      0             -5.6825784      4.4217785    
Loop time of 0.152444 on 4 procs for 1000 steps with 540 atoms

Performance: 2833823.828 tau/day, 6559.777 timesteps/s, 3.542 Matom-step/s
99.8% CPU use with 4 MPI tasks x no OpenMP threads

MPI task timing breakdown:
Section |  min time  |  avg time  |  max time  |%varavg| %total
---------------------------------------------------------------
Pair    | 0.059265   | 0.065608   | 0.070197   |   1.6 | 43.04
Neigh   | 0.013796   | 0.014856   | 0.015552   |   0.6 |  9.75
Comm    | 0.016005   | 0.021309   | 0.029084   |   3.4 | 13.98
Output  | 9e-06      | 3.4729e-05 | 4.3333e-05 |   0.0 |  0.02
Modify  | 0.048666   | 0.049045   | 0.049294   |   0.1 | 32.17
Other   |            | 0.001591   |            |       |  1.04

Nlocal:            135 ave         149 max         121 min
Histogram: 1 0 0 0 1 1 0 0 0 1
Nghost:           1206 ave        1217 max        1197 min
Histogram: 1 0 0 1 0 1 0 0 0 1
Neighs:        6173.75 ave        6921 max        5210 min
Histogram: 1 0 0 0 0 1 0 1 0 1

Total # of neighbors = 24695
Ave neighs/atom = 45.731481
Neighbor list builds = 97
Dangerous builds = 0
Wall Position 1.12
Generated 0 of 1 mixed pair_coeff terms from geometric mixing rule
Setting up Verlet run ...
  Unit style    : lj
  Current step  : 1000
  Time step     : 0.005
Per MPI rank memory allocation (min/avg/max) = 3.002 | 3.003 | 3.003 Mbytes
   Step          Temp          E_pair         E_mol          TotEng         Press     
      1000   0.62728415    -6.6217621      0             -5.6825784      4.4217785    
Loop time of 9.375e-07 on 4 procs for 0 steps with 540 atoms

106.7% CPU use with 4 MPI tasks x no OpenMP threads

MPI task timing breakdown:
Section |  min time  |  avg time  |  max time  |%varavg| %total
---------------------------------------------------------------
Pair    | 0          | 0          | 0          |   0.0 |  0.00
Neigh   | 0          | 0          | 0          |   0.0 |  0.00
Comm    | 0          | 0          | 0          |   0.0 |  0.00
Output  | 0          | 0          | 0          |   0.0 |  0.00
Modify  | 0          | 0          | 0          |   0.0 |  0.00
Other   |            | 9.375e-07  |            |       |100.00

Nlocal:            135 ave         149 max         121 min
Histogram: 1 0 0 0 1 1 0 0 0 1
Nghost:           1206 ave        1217 max        1197 min
Histogram: 1 0 0 1 0 1 0 0 0 1
Neighs:        6173.75 ave        6921 max        5210 min
Histogram: 1 0 0 0 0 1 0 1 0 1

Total # of neighbors = 24695
Ave neighs/atom = 45.731481
Neighbor list builds = 0
Dangerous builds = 0
Generated 0 of 1 mixed pair_coeff terms from geometric mixing rule
Setting up Verlet run ...
  Unit style    : lj
  Current step  : 1000
  Time step     : 0.005
Per MPI rank memory allocation (min/avg/max) = 3.002 | 3.003 | 3.003 Mbytes
   Step          Temp          E_pair         E_mol          TotEng         Press     
      1000   0.62728415    -6.6217621      0             -5.6825784      4.4217785    
      2000   0.61655491    -6.6217013      0             -5.6985816      4.3912068    
Loop time of 0.151127 on 4 procs for 1000 steps with 540 atoms

Performance: 2858523.754 tau/day, 6616.953 timesteps/s, 3.573 Matom-step/s
99.8% CPU use with 4 MPI tasks x no OpenMP threads

MPI task timing breakdown:
Section |  min time  |  avg time  |  max time  |%varavg| %total
---------------------------------------------------------------
Pair    | 0.059325   | 0.065316   | 0.068991   |   1.5 | 43.22
Neigh   | 0.013689   | 0.014628   | 0.015305   |   0.5 |  9.68
Comm    | 0.016473   | 0.021009   | 0.02835    |   3.2 | 13.90
Output  | 1.3083e-05 | 3.7563e-05 | 4.5875e-05 |   0.0 |  0.02
Modify  | 0.048093   | 0.04855    | 0.04949    |   0.3 | 32.13
Other   |            | 0.001586   |            |       |  1.05

Nlocal:            135 ave         144 max         126 min
Histogram: 2 0 0 0 0 0 0 0 0 2
Nghost:         1190.5 ave        1200 max        1185 min
Histogram: 1 0 2 0 0 0 0 0 0 1
Neighs:           6173 ave        6571 max        5481 min
Histogram: 1 0 0 0 0 1 0 0 0 2

Total # of neighbors = 24692
Ave neighs/atom = 45.725926
Neighbor list builds = 96
Dangerous builds = 0
Wall Position 1.1
Generated 0 of 1 mixed pair_coeff terms from geometric mixing rule
Setting up Verlet run ...
  Unit style    : lj
  Current step  : 2000
  Time step     : 0.005
Per MPI rank memory allocation (min/avg/max) = 3.002 | 3.003 | 3.003 Mbytes
   Step          Temp          E_pair         E_mol          TotEng         Press     
      2000   0.61655491    -6.6217013      0             -5.6985816      4.3912068    
Loop time of 1.16675e-06 on 4 procs for 0 steps with 540 atoms

85.7% CPU use with 4 MPI tasks x no OpenMP threads

MPI task timing breakdown:
Section |  min time  |  avg time  |  max time  |%varavg| %total
---------------------------------------------------------------
Pair    | 0          | 0          | 0          |   0.0 |  0.00
Neigh   | 0          | 0          | 0          |   0.0 |  0.00
Comm    | 0          | 0          | 0          |   0.0 |  0.00
Output  | 0          | 0          | 0          |   0.0 |  0.00
Modify  | 0          | 0          | 0          |   0.0 |  0.00
Other   |            | 1.167e-06  |            |       |100.00

Nlocal:            135 ave         145 max         125 min
Histogram: 1 1 0 0 0 0 0 0 0 2
Nghost:         1187.5 ave        1199 max        1177 min
Histogram: 1 0 1 0 0 0 1 0 0 1
Neighs:         6170.5 ave        6622 max        5539 min
Histogram: 1 0 0 0 1 0 0 0 1 1

Total # of neighbors = 24682
Ave neighs/atom = 45.707407
Neighbor list builds = 0
Dangerous builds = 0
Generated 0 of 1 mixed pair_coeff terms from geometric mixing rule
Setting up Verlet run ...
  Unit style    : lj
  Current step  : 2000
  Time step     : 0.005
Per MPI rank memory allocation (min/avg/max) = 3.002 | 3.003 | 3.003 Mbytes
   Step          Temp          E_pair         E_mol          TotEng         Press     
      2000   0.61655491    -6.6217013      0             -5.6985816      4.3912068    
      3000   0.60562719    -6.6002055      0             -5.6934471      4.5183097    
Loop time of 0.152787 on 4 procs for 1000 steps with 540 atoms

Performance: 2827460.293 tau/day, 6545.047 timesteps/s, 3.534 Matom-step/s
99.8% CPU use with 4 MPI tasks x no OpenMP threads

MPI task timing breakdown:
Section |  min time  |  avg time  |  max time  |%varavg| %total
---------------------------------------------------------------
Pair    | 0.059983   | 0.065286   | 0.068384   |   1.3 | 42.73
Neigh   | 0.013587   | 0.014364   | 0.014993   |   0.4 |  9.40
Comm    | 0.017885   | 0.022475   | 0.029038   |   2.8 | 14.71
Output  | 1.0333e-05 | 3.575e-05  | 4.4292e-05 |   0.0 |  0.02
Modify  | 0.048186   | 0.048939   | 0.050472   |   0.4 | 32.03
Other   |            | 0.001687   |            |       |  1.10

Nlocal:            135 ave         147 max         123 min
Histogram: 1 0 1 0 0 0 0 1 0 1
Nghost:         1198.5 ave        1211 max        1189 min
Histogram: 1 0 0 2 0 0 0 0 0 1
Neighs:        6178.75 ave        6710 max        5326 min
Histogram: 1 0 0 0 0 0 1 0 1 1

Total # of neighbors = 24715
Ave neighs/atom = 45.768519
Neighbor list builds = 94
Dangerous builds = 0
Wall Position 1.08
Generated 0 of 1 mixed pair_coeff terms from geometric mixing rule
Setting up Verlet run ...
  Unit style    : lj
  Current step  : 3000
  Time step     : 0.005
Per MPI rank memory allocation (min/avg/max) = 3.002 | 3.003 | 3.003 Mbytes
   Step          Temp          E_pair         E_mol          TotEng         Press     
      3000   0.60562719    -6.6002055      0             -5.6934471      4.5183097    
Loop time of 1.031e-06 on 4 procs for 0 steps with 540 atoms

97.0% CPU use with 4 MPI tasks x no OpenMP threads

MPI task timing breakdown:
Section |  min time  |  avg time  |  max time  |%varavg| %total
---------------------------------------------------------------
Pair    | 0          | 0          | 0          |   0.0 |  0.00
Neigh   | 0          | 0          | 0          |   0.0 |  0.00
Comm    | 0          | 0          | 0          |   0.0 |  0.00
Output  | 0          | 0          | 0          |   0.0 |  0.00
Modify  | 0          | 0          | 0          |   0.0 |  0.00
Other   |            | 1.031e-06  |            |       |100.00

Nlocal:            135 ave         147 max         123 min
Histogram: 1 0 1 0 0 0 0 1 0 1
Nghost:           1198 ave        1210 max        1188 min
Histogram: 1 0 0 0 2 0 0 0 0 1
Neighs:         6185.5 ave        6736 max        5326 min
Histogram: 1 0 0 0 0 0 1 1 0 1

Total # of neighbors = 24742
Ave neighs/atom = 45.818519
Neighbor list builds = 0
Dangerous builds = 0
Generated 0 of 1 mixed pair_coeff terms from geometric mixing rule
Setting up Verlet run ...
  Unit style    : lj
  Current step  : 3000
  Time step     : 0.005
Per MPI rank memory allocation (min/avg/max) = 3.002 | 3.003 | 3.003 Mbytes
   Step          Temp          E_pair         E_mol          TotEng         Press     
      3000   0.60562719    -6.6002055      0             -5.6934471      4.5183097    
      4000   0.62369243    -6.585557       0             -5.6517509      4.6239642    
Loop time of 0.159014 on 4 procs for 1000 steps with 540 atoms

Performance: 2716747.253 tau/day, 6288.767 timesteps/s, 3.396 Matom-step/s
99.8% CPU use with 4 MPI tasks x no OpenMP threads

MPI task timing breakdown:
Section |  min time  |  avg time  |  max time  |%varavg| %total
---------------------------------------------------------------
Pair    | 0.060234   | 0.065361   | 0.070213   |   1.5 | 41.10
Neigh   | 0.013488   | 0.014192   | 0.014953   |   0.6 |  8.93
Comm    | 0.022468   | 0.027494   | 0.031947   |   2.5 | 17.29
Output  | 1.175e-05  | 3.7583e-05 | 4.6375e-05 |   0.0 |  0.02
Modify  | 0.049257   | 0.050185   | 0.05162    |   0.4 | 31.56
Other   |            | 0.001744   |            |       |  1.10

Nlocal:            135 ave         143 max         127 min
Histogram: 1 0 0 0 0 2 0 0 0 1
Nghost:           1191 ave        1197 max        1185 min
Histogram: 1 0 0 0 0 2 0 0 0 1
Neighs:        6185.25 ave        6588 max        6020 min
Histogram: 2 1 0 0 0 0 0 0 0 1

Total # of neighbors = 24741
Ave neighs/atom = 45.816667
Neighbor list builds = 93
Dangerous builds = 0
Wall Position 1.06
Generated 0 of 1 mixed pair_coeff terms from geometric mixing rule
Setting up Verlet run ...
  Unit style    : lj
  Current step  : 4000
  Time step     : 0.005
Per MPI rank memory allocation (min/avg/max) = 3.002 | 3.003 | 3.003 Mbytes
   Step          Temp          E_pair         E_mol          TotEng         Press     
      4000   0.62369243    -6.585557       0             -5.6517509      4.6239642    
Loop time of 1.12525e-06 on 4 procs for 0 steps with 540 atoms

88.9% CPU use with 4 MPI tasks x no OpenMP threads

MPI task timing breakdown:
Section |  min time  |  avg time  |  max time  |%varavg| %total
---------------------------------------------------------------
Pair    | 0          | 0          | 0          |   0.0 |  0.00
Neigh   | 0          | 0          | 0          |   0.0 |  0.00
Comm    | 0          | 0          | 0          |   0.0 |  0.00
Output  | 0          | 0          | 0          |   0.0 |  0.00
Modify  | 0          | 0          | 0          |   0.0 |  0.00
Other   |            | 1.125e-06  |            |       |100.00

Nlocal:            135 ave         140 max         130 min
Histogram: 1 0 0 0 1 0 1 0 0 1
Nghost:           1191 ave        1204 max        1176 min
Histogram: 1 0 0 1 0 0 0 1 0 1
Neighs:         6184.5 ave        6453 max        6008 min
Histogram: 1 1 0 0 1 0 0 0 0 1

Total # of neighbors = 24738
Ave neighs/atom = 45.811111
Neighbor list builds = 0
Dangerous builds = 0
Generated 0 of 1 mixed pair_coeff terms from geometric mixing rule
Setting up Verlet run ...
  Unit style    : lj
  Current step  : 4000
  Time step     : 0.005
Per MPI rank memory allocation (min/avg/max) = 3.002 | 3.003 | 3.003 Mbytes
   Step          Temp          E_pair         E_mol          TotEng         Press     
      4000   0.62369243    -6.585557       0             -5.6517509      4.6239642    
      5000   0.64218039    -6.654406       0             -5.6929193      4.2567865    
Loop time of 0.160806 on 4 procs for 1000 steps with 540 atoms

Performance: 2686463.795 tau/day, 6218.666 timesteps/s, 3.358 Matom-step/s
99.5% CPU use with 4 MPI tasks x no OpenMP threads

MPI task timing breakdown:
Section |  min time  |  avg time  |  max time  |%varavg| %total
---------------------------------------------------------------
Pair    | 0.059639   | 0.06602    | 0.070513   |   1.6 | 41.06
Neigh   | 0.013499   | 0.014619   | 0.01537    |   0.6 |  9.09
Comm    | 0.02111    | 0.026375   | 0.034077   |   3.0 | 16.40
Output  | 2.0083e-05 | 7.6833e-05 | 9.6292e-05 |   0.0 |  0.05
Modify  | 0.05168    | 0.051872   | 0.05212    |   0.1 | 32.26
Other   |            | 0.001844   |            |       |  1.15

Nlocal:            135 ave         147 max         123 min
Histogram: 1 0 0 0 1 1 0 0 0 1
Nghost:         1198.5 ave        1205 max        1193 min
Histogram: 1 1 0 0 0 0 1 0 0 1
Neighs:        6184.75 ave        6707 max        5296 min
Histogram: 1 0 0 0 0 0 0 1 1 1

Total # of neighbors = 24739
Ave neighs/atom = 45.812963
Neighbor list builds = 95
Dangerous builds = 0
Wall Position 1.04
Generated 0 of 1 mixed pair_coeff terms from geometric mixing rule
Setting up Verlet run ...
  Unit style    : lj
  Current step  : 5000
  Time step     : 0.005
Per MPI rank memory allocation (min/avg/max) = 3.002 | 3.003 | 3.003 Mbytes
   Step          Temp          E_pair         E_mol          TotEng         Press     
      5000   0.64218039    -6.654406       0             -5.6929193      4.2567865    
Loop time of 1.3435e-06 on 4 procs for 0 steps with 540 atoms

74.4% CPU use with 4 MPI tasks x no OpenMP threads

MPI task timing breakdown:
Section |  min time  |  avg time  |  max time  |%varavg| %total
---------------------------------------------------------------
Pair    | 0          | 0          | 0          |   0.0 |  0.00
Neigh   | 0          | 0          | 0          |   0.0 |  0.00
Comm    | 0          | 0          | 0          |   0.0 |  0.00
Output  | 0          | 0          | 0          |   0.0 |  0.00
Modify  | 0          | 0          | 0          |   0.0 |  0.00
Other   |            | 1.343e-06  |            |       |100.00

Nlocal:            135 ave         145 max         125 min
Histogram: 1 0 0 1 0 0 0 1 0 1
Nghost:         1194.5 ave        1203 max        1185 min
Histogram: 1 0 0 0 1 0 1 0 0 1
Neighs:         6172.5 ave        6598 max        5371 min
Histogram: 1 0 0 0 0 0 1 0 0 2

Total # of neighbors = 24690
Ave neighs/atom = 45.722222
Neighbor list builds = 0
Dangerous builds = 0
Generated 0 of 1 mixed pair_coeff terms from geometric mixing rule
Setting up Verlet run ...
  Unit style    : lj
  Current step  : 5000
  Time step     : 0.005
Per MPI rank memory allocation (min/avg/max) = 3.002 | 3.003 | 3.003 Mbytes
   Step          Temp          E_pair         E_mol          TotEng         Press     
      5000   0.64218039    -6.654406       0             -5.6929193      4.2567865    
      6000   0.63714881    -6.593532       0             -5.6395787      4.5843366    
Loop time of 0.161189 on 4 procs for 1000 steps with 540 atoms

Performance: 2680083.799 tau/day, 6203.898 timesteps/s, 3.350 Matom-step/s
99.3% CPU use with 4 MPI tasks x no OpenMP threads

MPI task timing breakdown:
Section |  min time  |  avg time  |  max time  |%varavg| %total
---------------------------------------------------------------
Pair    | 0.060072   | 0.066361   | 0.070809   |   1.5 | 41.17
Neigh   | 0.013745   | 0.014718   | 0.015327   |   0.5 |  9.13
Comm    | 0.020982   | 0.026167   | 0.033902   |   3.0 | 16.23
Output  | 1.7334e-05 | 6.4094e-05 | 7.9833e-05 |   0.0 |  0.04
Modify  | 0.051573   | 0.052054   | 0.052458   |   0.1 | 32.29
Other   |            | 0.001825   |            |       |  1.13

Nlocal:            135 ave         145 max         125 min
Histogram: 1 0 0 0 1 1 0 0 0 1
Nghost:         1186.5 ave        1195 max        1172 min
Histogram: 1 0 0 0 0 0 0 2 0 1
Neighs:        6176.75 ave        6638 max        5371 min
Histogram: 1 0 0 0 0 0 1 0 1 1

Total # of neighbors = 24707
Ave neighs/atom = 45.753704
Neighbor list builds = 95
Dangerous builds = 0
Wall Position 1.02
Generated 0 of 1 mixed pair_coeff terms from geometric mixing rule
Setting up Verlet run ...
  Unit style    : lj
  Current step  : 6000
  Time step     : 0.005
Per MPI rank memory allocation (min/avg/max) = 3.002 | 3.003 | 3.003 Mbytes
   Step          Temp          E_pair         E_mol          TotEng         Press     
      6000   0.63714881    -6.593532       0             -5.6395787      4.5843366    
Loop time of 9.585e-07 on 4 procs for 0 steps with 540 atoms

104.3% CPU use with 4 MPI tasks x no OpenMP threads

MPI task timing breakdown:
Section |  min time  |  avg time  |  max time  |%varavg| %total
---------------------------------------------------------------
Pair    | 0          | 0          | 0          |   0.0 |  0.00
Neigh   | 0          | 0          | 0          |   0.0 |  0.00
Comm    | 0          | 0          | 0          |   0.0 |  0.00
Output  | 0          | 0          | 0          |   0.0 |  0.00
Modify  | 0          | 0          | 0          |   0.0 |  0.00
Other   |            | 9.585e-07  |            |       |100.00

Nlocal:            135 ave         144 max         126 min
Histogram: 1 0 1 0 0 0 0 1 0 1
Nghost:         1190.5 ave        1196 max        1183 min
Histogram: 1 0 0 0 0 1 0 1 0 1
Neighs:        6181.25 ave        6597 max        5408 min
Histogram: 1 0 0 0 0 0 0 0 2 1

Total # of neighbors = 24725
Ave neighs/atom = 45.787037
Neighbor list builds = 0
Dangerous builds = 0
Generated 0 of 1 mixed pair_coeff terms from geometric mixing rule
Setting up Verlet run ...
  Unit style    : lj
  Current step  : 6000
  Time step     : 0.005
Per MPI rank memory allocation (min/avg/max) = 3.002 | 3.003 | 3.003 Mbytes
   Step          Temp          E_pair         E_mol          TotEng         Press     
      6000   0.63714881    -6.593532       0             -5.6395787      4.5843366    
      7000   0.61126001    -6.6577506      0             -5.7425586      4.1971828    
Loop time of 0.162201 on 4 procs for 1000 steps with 540 atoms

Performance: 2663364.177 tau/day, 6165.195 timesteps/s, 3.329 Matom-step/s
99.1% CPU use with 4 MPI tasks x no OpenMP threads

MPI task timing breakdown:
Section |  min time  |  avg time  |  max time  |%varavg| %total
---------------------------------------------------------------
Pair    | 0.060642   | 0.066742   | 0.070662   |   1.4 | 41.15
Neigh   | 0.014104   | 0.015066   | 0.015669   |   0.5 |  9.29
Comm    | 0.021389   | 0.025917   | 0.033097   |   2.7 | 15.98
Output  | 1.0833e-05 | 3.4188e-05 | 4.225e-05  |   0.0 |  0.02
Modify  | 0.052468   | 0.052608   | 0.052746   |   0.0 | 32.43
Other   |            | 0.001833   |            |       |  1.13

Nlocal:            135 ave         146 max         124 min
Histogram: 1 0 0 1 0 0 1 0 0 1
Nghost:           1197 ave        1207 max        1190 min
Histogram: 2 0 0 0 0 0 1 0 0 1
Neighs:           6167 ave        6664 max        5779 min
Histogram: 1 1 0 0 0 1 0 0 0 1

Total # of neighbors = 24668
Ave neighs/atom = 45.681481
Neighbor list builds = 97
Dangerous builds = 0
Wall Position 1
Generated 0 of 1 mixed pair_coeff terms from geometric mixing rule
Setting up Verlet run ...
  Unit style    : lj
  Current step  : 7000
  Time step     : 0.005
Per MPI rank memory allocation (min/avg/max) = 3.002 | 3.003 | 3.003 Mbytes
   Step          Temp          E_pair         E_mol          TotEng         Press     
      7000   0.61126001    -6.6577506      0             -5.7425586      4.1971828    
Loop time of 1.1355e-06 on 4 procs for 0 steps with 540 atoms

88.1% CPU use with 4 MPI tasks x no OpenMP threads

MPI task timing breakdown:
Section |  min time  |  avg time  |  max time  |%varavg| %total
---------------------------------------------------------------
Pair    | 0          | 0          | 0          |   0.0 |  0.00
Neigh   | 0          | 0          | 0          |   0.0 |  0.00
Comm    | 0          | 0          | 0          |   0.0 |  0.00
Output  | 0          | 0          | 0          |   0.0 |  0.00
Modify  | 0          | 0          | 0          |   0.0 |  0.00
Other   |            | 1.135e-06  |            |       |100.00

Nlocal:            135 ave         146 max         124 min
Histogram: 1 0 0 1 0 0 1 0 0 1
Nghost:           1197 ave        1209 max        1190 min
Histogram: 2 0 0 0 1 0 0 0 0 1
Neighs:        6162.25 ave        6668 max        5766 min
Histogram: 1 1 0 0 0 1 0 0 0 1

Total # of neighbors = 24649
Ave neighs/atom = 45.646296
Neighbor list builds = 0
Dangerous builds = 0
Generated 0 of 1 mixed pair_coeff terms from geometric mixing rule
Setting up Verlet run ...
  Unit style    : lj
  Current step  : 7000
  Time step     : 0.005
Per MPI rank memory allocation (min/avg/max) = 3.002 | 3.003 | 3.003 Mbytes
   Step          Temp          E_pair         E_mol          TotEng         Press     
      7000   0.61126001    -6.6577506      0             -5.7425586      4.1971828    
      8000   0.68363235    -6.5931064      0             -5.5695568      4.6339583    
Loop time of 0.165052 on 4 procs for 1000 steps with 540 atoms

Performance: 2617357.442 tau/day, 6058.698 timesteps/s, 3.272 Matom-step/s
98.7% CPU use with 4 MPI tasks x no OpenMP threads

MPI task timing breakdown:
Section |  min time  |  avg time  |  max time  |%varavg| %total
---------------------------------------------------------------
Pair    | 0.061211   | 0.06773    | 0.072648   |   1.6 | 41.04
Neigh   | 0.013863   | 0.014993   | 0.015807   |   0.6 |  9.08
Comm    | 0.019709   | 0.025289   | 0.033104   |   3.1 | 15.32
Output  | 1.0208e-05 | 3.1218e-05 | 3.8333e-05 |   0.0 |  0.02
Modify  | 0.054956   | 0.055074   | 0.055366   |   0.1 | 33.37
Other   |            | 0.001936   |            |       |  1.17

Nlocal:            135 ave         149 max         121 min
Histogram: 1 0 0 0 1 1 0 0 0 1
Nghost:         1194.5 ave        1202 max        1181 min
Histogram: 1 0 0 0 0 0 1 0 0 2
Neighs:         6186.5 ave        6786 max        5215 min
Histogram: 1 0 0 0 0 0 0 2 0 1

Total # of neighbors = 24746
Ave neighs/atom = 45.825926
Neighbor list builds = 95
Dangerous builds = 0
Wall Position 0.98
Generated 0 of 1 mixed pair_coeff terms from geometric mixing rule
Setting up Verlet run ...
  Unit style    : lj
  Current step  : 8000
  Time step     : 0.005
Per MPI rank memory allocation (min/avg/max) = 3.002 | 3.003 | 3.003 Mbytes
   Step          Temp          E_pair         E_mol          TotEng         Press     
      8000   0.68363235    -6.5931064      0             -5.5695568      4.6339583    
Loop time of 1.19775e-06 on 4 procs for 0 steps with 540 atoms

83.5% CPU use with 4 MPI tasks x no OpenMP threads

MPI task timing breakdown:
Section |  min time  |  avg time  |  max time  |%varavg| %total
---------------------------------------------------------------
Pair    | 0          | 0          | 0          |   0.0 |  0.00
Neigh   | 0          | 0          | 0          |   0.0 |  0.00
Comm    | 0          | 0          | 0          |   0.0 |  0.00
Output  | 0          | 0          | 0          |   0.0 |  0.00
Modify  | 0          | 0          | 0          |   0.0 |  0.00
Other   |            | 1.198e-06  |            |       |100.00

Nlocal:            135 ave         148 max         122 min
Histogram: 1 0 0 0 1 1 0 0 0 1
Nghost:           1193 ave        1204 max        1182 min
Histogram: 2 0 0 0 0 0 0 0 0 2
Neighs:           6190 ave        6732 max        5262 min
Histogram: 1 0 0 0 0 0 0 2 0 1

Total # of neighbors = 24760
Ave neighs/atom = 45.851852
Neighbor list builds = 0
Dangerous builds = 0
Generated 0 of 1 mixed pair_coeff terms from geometric mixing rule
Setting up Verlet run ...
  Unit style    : lj
  Current step  : 8000
  Time step     : 0.005
Per MPI rank memory allocation (min/avg/max) = 3.002 | 3.003 | 3.003 Mbytes
   Step          Temp          E_pair         E_mol          TotEng         Press     
      8000   0.68363235    -6.5931064      0             -5.5695568      4.6339583    
      9000   0.65446469    -6.5874818      0             -5.6076027      4.634312     
Loop time of 0.169419 on 4 procs for 1000 steps with 540 atoms

Performance: 2549898.466 tau/day, 5902.543 timesteps/s, 3.187 Matom-step/s
98.1% CPU use with 4 MPI tasks x no OpenMP threads

MPI task timing breakdown:
Section |  min time  |  avg time  |  max time  |%varavg| %total
---------------------------------------------------------------
Pair    | 0.061774   | 0.067741   | 0.073084   |   1.6 | 39.98
Neigh   | 0.013866   | 0.014911   | 0.015721   |   0.6 |  8.80
Comm    | 0.020746   | 0.026871   | 0.034005   |   3.0 | 15.86
Output  | 1.1125e-05 | 3.7843e-05 | 4.6833e-05 |   0.0 |  0.02
Modify  | 0.057747   | 0.057888   | 0.058062   |   0.1 | 34.17
Other   |            | 0.001969   |            |       |  1.16

Nlocal:            135 ave         143 max         127 min
Histogram: 1 0 1 0 0 0 0 1 0 1
Nghost:         1192.5 ave        1199 max        1183 min
Histogram: 1 0 0 0 0 0 1 1 0 1
Neighs:        6191.25 ave        6584 max        5800 min
Histogram: 1 0 0 1 0 1 0 0 0 1

Total # of neighbors = 24765
Ave neighs/atom = 45.861111
Neighbor list builds = 94
Dangerous builds = 0
Wall Position 0.96
Generated 0 of 1 mixed pair_coeff terms from geometric mixing rule
Setting up Verlet run ...
  Unit style    : lj
  Current step  : 9000
  Time step     : 0.005
Per MPI rank memory allocation (min/avg/max) = 3.002 | 3.003 | 3.003 Mbytes
   Step          Temp          E_pair         E_mol          TotEng         Press     
      9000   0.65446469    -6.5874818      0             -5.6076027      4.634312     
Loop time of 1.073e-06 on 4 procs for 0 steps with 540 atoms

69.9% CPU use with 4 MPI tasks x no OpenMP threads

MPI task timing breakdown:
Section |  min time  |  avg time  |  max time  |%varavg| %total
---------------------------------------------------------------
Pair    | 0          | 0          | 0          |   0.0 |  0.00
Neigh   | 0          | 0          | 0          |   0.0 |  0.00
Comm    | 0          | 0          | 0          |   0.0 |  0.00
Output  | 0          | 0          | 0          |   0.0 |  0.00
Modify  | 0          | 0          | 0          |   0.0 |  0.00
Other   |            | 1.073e-06  |            |       |100.00

Nlocal:            135 ave         141 max         129 min
Histogram: 1 1 0 0 0 0 0 0 1 1
Nghost:           1195 ave        1201 max        1189 min
Histogram: 1 0 0 1 0 0 1 0 0 1
Neighs:        6196.75 ave        6455 max        5683 min
Histogram: 1 0 0 0 0 0 0 1 0 2

Total # of neighbors = 24787
Ave neighs/atom = 45.901852
Neighbor list builds = 0
Dangerous builds = 0
Generated 0 of 1 mixed pair_coeff terms from geometric mixing rule
Setting up Verlet run ...
  Unit style    : lj
  Current step  : 9000
  Time step     : 0.005
Per MPI rank memory allocation (min/avg/max) = 3.002 | 3.003 | 3.003 Mbytes
   Step          Temp          E_pair         E_mol          TotEng         Press     
      9000   0.65446469    -6.5874818      0             -5.6076027      4.634312     
     10000   0.62056761    -6.5499773      0             -5.6208497      4.7838326    
Loop time of 0.156058 on 4 procs for 1000 steps with 540 atoms

Performance: 2768201.566 tau/day, 6407.874 timesteps/s, 3.460 Matom-step/s
99.4% CPU use with 4 MPI tasks x no OpenMP threads

MPI task timing breakdown:
Section |  min time  |  avg time  |  max time  |%varavg| %total
---------------------------------------------------------------
Pair    | 0.059631   | 0.065926   | 0.071015   |   1.6 | 42.24
Neigh   | 0.013722   | 0.014668   | 0.01543    |   0.5 |  9.40
Comm    | 0.016826   | 0.022692   | 0.030165   |   3.2 | 14.54
Output  | 1.4292e-05 | 6.8105e-05 | 8.6125e-05 |   0.0 |  0.04
Modify  | 0.050739   | 0.050996   | 0.051103   |   0.1 | 32.68
Other   |            | 0.001709   |            |       |  1.09

Nlocal:            135 ave         140 max         130 min
Histogram: 1 1 0 0 0 0 0 0 0 2
Nghost:           1186 ave        1195 max        1169 min
Histogram: 1 0 0 0 0 0 0 1 1 1
Neighs:           6171 ave        6382 max        5775 min
Histogram: 1 0 0 0 0 0 1 0 0 2

Total # of neighbors = 24684
Ave neighs/atom = 45.711111
Neighbor list builds = 95
Dangerous builds = 0
Wall Position 0.94
Generated 0 of 1 mixed pair_coeff terms from geometric mixing rule
Setting up Verlet run ...
  Unit style    : lj
  Current step  : 10000
  Time step     : 0.005
Per MPI rank memory allocation (min/avg/max) = 3.002 | 3.003 | 3.003 Mbytes
   Step          Temp          E_pair         E_mol          TotEng         Press     
     10000   0.62056761    -6.5499773      0             -5.6208497      4.7838326    
Loop time of 1.17725e-06 on 4 procs for 0 steps with 540 atoms

84.9% CPU use with 4 MPI tasks x no OpenMP threads

MPI task timing breakdown:
Section |  min time  |  avg time  |  max time  |%varavg| %total
---------------------------------------------------------------
Pair    | 0          | 0          | 0          |   0.0 |  0.00
Neigh   | 0          | 0          | 0          |   0.0 |  0.00
Comm    | 0          | 0          | 0          |   0.0 |  0.00
Output  | 0          | 0          | 0          |   0.0 |  0.00
Modify  | 0          | 0          | 0          |   0.0 |  0.00
Other   |            | 1.177e-06  |            |       |100.00

Nlocal:            135 ave         139 max         131 min
Histogram: 1 1 0 0 0 0 0 0 1 1
Nghost:         1186.5 ave        1197 max        1169 min
Histogram: 1 0 0 0 0 1 0 0 0 2
Neighs:         6169.5 ave        6330 max        5898 min
Histogram: 1 0 0 0 0 0 1 0 1 1

Total # of neighbors = 24678
Ave neighs/atom = 45.7
Neighbor list builds = 0
Dangerous builds = 0
Generated 0 of 1 mixed pair_coeff terms from geometric mixing rule
Setting up Verlet run ...
  Unit style    : lj
  Current step  : 10000
  Time step     : 0.005
Per MPI rank memory allocation (min/avg/max) = 3.002 | 3.003 | 3.003 Mbytes
   Step          Temp          E_pair         E_mol          TotEng         Press     
     10000   0.62056761    -6.5499773      0             -5.6208497      4.7838326    
     11000   0.64745697    -6.5779226      0             -5.6085357      4.6994384    
Loop time of 0.159068 on 4 procs for 1000 steps with 540 atoms

Performance: 2715813.068 tau/day, 6286.604 timesteps/s, 3.395 Matom-step/s
99.7% CPU use with 4 MPI tasks x no OpenMP threads

MPI task timing breakdown:
Section |  min time  |  avg time  |  max time  |%varavg| %total
---------------------------------------------------------------
Pair    | 0.059679   | 0.065433   | 0.068985   |   1.4 | 41.14
Neigh   | 0.013426   | 0.014307   | 0.01495    |   0.5 |  8.99
Comm    | 0.022282   | 0.027356   | 0.034898   |   2.9 | 17.20
Output  | 1.2292e-05 | 4.1282e-05 | 5.1459e-05 |   0.0 |  0.03
Modify  | 0.049141   | 0.050117   | 0.052003   |   0.5 | 31.51
Other   |            | 0.001814   |            |       |  1.14

Nlocal:            135 ave         145 max         125 min
Histogram: 1 0 0 0 1 1 0 0 0 1
Nghost:           1192 ave        1195 max        1186 min
Histogram: 1 0 0 0 0 0 0 1 1 1
Neighs:         6196.5 ave        6683 max        5339 min
Histogram: 1 0 0 0 0 0 0 2 0 1

Total # of neighbors = 24786
Ave neighs/atom = 45.9
Neighbor list builds = 94
Dangerous builds = 0
Wall Position 0.92
Generated 0 of 1 mixed pair_coeff terms from geometric mixing rule
Setting up Verlet run ...
  Unit style    : lj
  Current step  : 11000
  Time step     : 0.005
Per MPI rank memory allocation (min/avg/max) = 3.002 | 3.003 | 3.003 Mbytes
   Step          Temp          E_pair         E_mol          TotEng         Press     
     11000   0.64745697    -6.5779226      0             -5.6085357      4.6994384    
Loop time of 1.66675e-06 on 4 procs for 0 steps with 540 atoms

105.0% CPU use with 4 MPI tasks x no OpenMP threads

MPI task timing breakdown:
Section |  min time  |  avg time  |  max time  |%varavg| %total
---------------------------------------------------------------
Pair    | 0          | 0          | 0          |   0.0 |  0.00
Neigh   | 0          | 0          | 0          |   0.0 |  0.00
Comm    | 0          | 0          | 0          |   0.0 |  0.00
Output  | 0          | 0          | 0          |   0.0 |  0.00
Modify  | 0          | 0          | 0          |   0.0 |  0.00
Other   |            | 1.667e-06  |            |       |100.00

Nlocal:            135 ave         144 max         126 min
Histogram: 1 0 0 0 0 2 0 0 0 1
Nghost:         1190.5 ave        1197 max        1179 min
Histogram: 1 0 0 0 0 0 0 1 1 1
Neighs:         6198.5 ave        6625 max        5423 min
Histogram: 1 0 0 0 0 0 0 1 1 1

Total # of neighbors = 24794
Ave neighs/atom = 45.914815
Neighbor list builds = 0
Dangerous builds = 0
Generated 0 of 1 mixed pair_coeff terms from geometric mixing rule
Setting up Verlet run ...
  Unit style    : lj
  Current step  : 11000
  Time step     : 0.005
Per MPI rank memory allocation (min/avg/max) = 3.002 | 3.003 | 3.003 Mbytes
   Step          Temp          E_pair         E_mol          TotEng         Press     
     11000   0.64745697    -6.5779226      0             -5.6085357      4.6994384    
     12000   0.59794898    -6.6098668      0             -5.7146043      4.4637495    
Loop time of 0.160831 on 4 procs for 1000 steps with 540 atoms

Performance: 2686048.814 tau/day, 6217.706 timesteps/s, 3.358 Matom-step/s
98.2% CPU use with 4 MPI tasks x no OpenMP threads

MPI task timing breakdown:
Section |  min time  |  avg time  |  max time  |%varavg| %total
---------------------------------------------------------------
Pair    | 0.059417   | 0.065669   | 0.070539   |   1.6 | 40.83
Neigh   | 0.013508   | 0.014567   | 0.01535    |   0.6 |  9.06
Comm    | 0.016991   | 0.023175   | 0.030766   |   3.3 | 14.41
Output  | 1.5333e-05 | 7.6958e-05 | 9.75e-05   |   0.0 |  0.05
Modify  | 0.055325   | 0.055594   | 0.056151   |   0.1 | 34.57
Other   |            | 0.00175    |            |       |  1.09

Nlocal:            135 ave         143 max         127 min
Histogram: 1 0 0 0 0 2 0 0 0 1
Nghost:           1189 ave        1199 max        1169 min
Histogram: 1 0 0 0 0 0 0 0 2 1
Neighs:        6168.25 ave        6530 max        5972 min
Histogram: 1 1 1 0 0 0 0 0 0 1

Total # of neighbors = 24673
Ave neighs/atom = 45.690741
Neighbor list builds = 95
Dangerous builds = 0
Wall Position 0.9
Generated 0 of 1 mixed pair_coeff terms from geometric mixing rule
Setting up Verlet run ...
  Unit style    : lj
  Current step  : 12000
  Time step     : 0.005
Per MPI rank memory allocation (min/avg/max) = 3.002 | 3.003 | 3.003 Mbytes
   Step          Temp          E_pair         E_mol          TotEng         Press     
     12000   0.59794898    -6.6098668      0             -5.7146043      4.4637495    
Loop time of 1.354e-06 on 4 procs for 0 steps with 540 atoms

73.9% CPU use with 4 MPI tasks x no OpenMP threads

MPI task timing breakdown:
Section |  min time  |  avg time  |  max time  |%varavg| %total
---------------------------------------------------------------
Pair    | 0          | 0          | 0          |   0.0 |  0.00
Neigh   | 0          | 0          | 0          |   0.0 |  0.00
Comm    | 0          | 0          | 0          |   0.0 |  0.00
Output  | 0          | 0          | 0          |   0.0 |  0.00
Modify  | 0          | 0          | 0          |   0.0 |  0.00
Other   |            | 1.354e-06  |            |       |100.00

Nlocal:            135 ave         142 max         128 min
Histogram: 1 0 0 0 1 1 0 0 0 1
Nghost:         1190.5 ave        1202 max        1166 min
Histogram: 1 0 0 0 0 0 0 1 0 2
Neighs:        6171.25 ave        6511 max        6022 min
Histogram: 2 0 1 0 0 0 0 0 0 1

Total # of neighbors = 24685
Ave neighs/atom = 45.712963
Neighbor list builds = 0
Dangerous builds = 0
Generated 0 of 1 mixed pair_coeff terms from geometric mixing rule
Setting up Verlet run ...
  Unit style    : lj
  Current step  : 12000
  Time step     : 0.005
Per MPI rank memory allocation (min/avg/max) = 3.002 | 3.003 | 3.003 Mbytes
   Step          Temp          E_pair         E_mol          TotEng         Press     
     12000   0.59794898    -6.6098668      0             -5.7146043      4.4637495    
     13000   0.60076934    -6.6095268      0             -5.7100416      4.4701217    
Loop time of 0.158046 on 4 procs for 1000 steps with 540 atoms

Performance: 2733385.385 tau/day, 6327.281 timesteps/s, 3.417 Matom-step/s
99.7% CPU use with 4 MPI tasks x no OpenMP threads

MPI task timing breakdown:
Section |  min time  |  avg time  |  max time  |%varavg| %total
---------------------------------------------------------------
Pair    | 0.06018    | 0.065412   | 0.069819   |   1.4 | 41.39
Neigh   | 0.013444   | 0.014239   | 0.014933   |   0.5 |  9.01
Comm    | 0.021638   | 0.026226   | 0.031271   |   2.4 | 16.59
Output  | 1.9625e-05 | 7.7261e-05 | 9.6667e-05 |   0.0 |  0.05
Modify  | 0.049655   | 0.050369   | 0.051385   |   0.3 | 31.87
Other   |            | 0.001722   |            |       |  1.09

Nlocal:            135 ave         143 max         127 min
Histogram: 1 1 0 0 0 0 0 0 1 1
Nghost:         1193.5 ave        1208 max        1181 min
Histogram: 1 0 1 0 0 1 0 0 0 1
Neighs:        6166.75 ave        6489 max        5480 min
Histogram: 1 0 0 0 0 0 0 1 0 2

Total # of neighbors = 24667
Ave neighs/atom = 45.67963
Neighbor list builds = 93
Dangerous builds = 0
Wall Position 0.88
Generated 0 of 1 mixed pair_coeff terms from geometric mixing rule
Setting up Verlet run ...
  Unit style    : lj
  Current step  : 13000
  Time step     : 0.005
Per MPI rank memory allocation (min/avg/max) = 3.002 | 3.003 | 3.003 Mbytes
   Step          Temp          E_pair         E_mol          TotEng         Press     
     13000   0.60076934    -6.6095268      0             -5.7100416      4.4701217    
Loop time of 1.479e-06 on 4 procs for 0 steps with 540 atoms

101.4% CPU use with 4 MPI tasks x no OpenMP threads

MPI task timing breakdown:
Section |  min time  |  avg time  |  max time  |%varavg| %total
---------------------------------------------------------------
Pair    | 0          | 0          | 0          |   0.0 |  0.00
Neigh   | 0          | 0          | 0          |   0.0 |  0.00
Comm    | 0          | 0          | 0          |   0.0 |  0.00
Output  | 0          | 0          | 0          |   0.0 |  0.00
Modify  | 0          | 0          | 0          |   0.0 |  0.00
Other   |            | 1.479e-06  |            |       |100.00

Nlocal:            135 ave         143 max         127 min
Histogram: 2 0 0 0 0 0 0 0 0 2
Nghost:           1192 ave        1203 max        1181 min
Histogram: 1 0 1 0 0 0 0 1 0 1
Neighs:        6167.25 ave        6570 max        5473 min
Histogram: 1 0 0 0 0 0 1 0 0 2

Total # of neighbors = 24669
Ave neighs/atom = 45.683333
Neighbor list builds = 0
Dangerous builds = 0
Generated 0 of 1 mixed pair_coeff terms from geometric mixing rule
Setting up Verlet run ...
  Unit style    : lj
  Current step  : 13000
  Time step     : 0.005
Per MPI rank memory allocation (min/avg/max) = 3.002 | 3.003 | 3.003 Mbytes
   Step          Temp          E_pair         E_mol          TotEng         Press     
     13000   0.60076934    -6.6095268      0             -5.7100416      4.4701217    
     14000   0.632405      -6.6211992      0             -5.6743484      4.4193647    
Loop time of 0.162415 on 4 procs for 1000 steps with 540 atoms

Performance: 2659845.337 tau/day, 6157.049 timesteps/s, 3.325 Matom-step/s
99.7% CPU use with 4 MPI tasks x no OpenMP threads

MPI task timing breakdown:
Section |  min time  |  avg time  |  max time  |%varavg| %total
---------------------------------------------------------------
Pair    | 0.059134   | 0.065494   | 0.071262   |   1.7 | 40.32
Neigh   | 0.013374   | 0.014423   | 0.015316   |   0.6 |  8.88
Comm    | 0.023416   | 0.029801   | 0.037902   |   3.0 | 18.35
Output  | 1.1125e-05 | 4.974e-05  | 6.2875e-05 |   0.0 |  0.03
Modify  | 0.050176   | 0.050816   | 0.05213    |   0.3 | 31.29
Other   |            | 0.001832   |            |       |  1.13

Nlocal:            135 ave         144 max         126 min
Histogram: 2 0 0 0 0 0 0 0 0 2
Nghost:         1194.5 ave        1206 max        1182 min
Histogram: 1 0 0 0 0 2 0 0 0 1
Neighs:        6191.75 ave        6605 max        5540 min
Histogram: 1 0 0 0 0 1 0 0 1 1

Total # of neighbors = 24767
Ave neighs/atom = 45.864815
Neighbor list builds = 94
Dangerous builds = 0
Wall Position 0.86
Generated 0 of 1 mixed pair_coeff terms from geometric mixing rule
Setting up Verlet run ...
  Unit style    : lj
  Current step  : 14000
  Time step     : 0.005
Per MPI rank memory allocation (min/avg/max) = 3.002 | 3.003 | 3.003 Mbytes
   Step          Temp          E_pair         E_mol          TotEng         Press     
     14000   0.632405      -6.6211992      0             -5.6743484      4.4193647    
Loop time of 1.14625e-06 on 4 procs for 0 steps with 540 atoms

87.2% CPU use with 4 MPI tasks x no OpenMP threads

MPI task timing breakdown:
Section |  min time  |  avg time  |  max time  |%varavg| %total
---------------------------------------------------------------
Pair    | 0          | 0          | 0          |   0.0 |  0.00
Neigh   | 0          | 0          | 0          |   0.0 |  0.00
Comm    | 0          | 0          | 0          |   0.0 |  0.00
Output  | 0          | 0          | 0          |   0.0 |  0.00
Modify  | 0          | 0          | 0          |   0.0 |  0.00
Other   |            | 1.146e-06  |            |       |100.00

Nlocal:            135 ave         146 max         124 min
Histogram: 1 1 0 0 0 0 0 0 1 1
Nghost:           1189 ave        1198 max        1181 min
Histogram: 2 0 0 0 0 0 0 0 1 1
Neighs:         6188.5 ave        6692 max        5544 min
Histogram: 1 0 0 0 1 0 0 0 1 1

Total # of neighbors = 24754
Ave neighs/atom = 45.840741
Neighbor list builds = 0
Dangerous builds = 0
Generated 0 of 1 mixed pair_coeff terms from geometric mixing rule
Setting up Verlet run ...
  Unit style    : lj
  Current step  : 14000
  Time step     : 0.005
Per MPI rank memory allocation (min/avg/max) = 3.002 | 3.003 | 3.003 Mbytes
   Step          Temp          E_pair         E_mol          TotEng         Press     
     14000   0.632405      -6.6211992      0             -5.6743484      4.4193647    
     15000   0.61395476    -6.6489619      0             -5.7297352      4.245448     
Loop time of 0.160218 on 4 procs for 1000 steps with 540 atoms

Performance: 2696318.018 tau/day, 6241.477 timesteps/s, 3.370 Matom-step/s
99.7% CPU use with 4 MPI tasks x no OpenMP threads

MPI task timing breakdown:
Section |  min time  |  avg time  |  max time  |%varavg| %total
---------------------------------------------------------------
Pair    | 0.060026   | 0.06551    | 0.068886   |   1.3 | 40.89
Neigh   | 0.013585   | 0.014405   | 0.015027   |   0.5 |  8.99
Comm    | 0.023054   | 0.028304   | 0.035567   |   2.8 | 17.67
Output  | 1.0792e-05 | 3.6938e-05 | 4.575e-05  |   0.0 |  0.02
Modify  | 0.048991   | 0.050162   | 0.052484   |   0.6 | 31.31
Other   |            | 0.001802   |            |       |  1.12

Nlocal:            135 ave         144 max         126 min
Histogram: 1 0 1 0 0 0 0 1 0 1
Nghost:         1186.5 ave        1210 max        1171 min
Histogram: 1 0 1 1 0 0 0 0 0 1
Neighs:         6164.5 ave        6608 max        5765 min
Histogram: 1 0 0 1 0 1 0 0 0 1

Total # of neighbors = 24658
Ave neighs/atom = 45.662963
Neighbor list builds = 94
Dangerous builds = 0
Wall Position 0.84
Generated 0 of 1 mixed pair_coeff terms from geometric mixing rule
Setting up Verlet run ...
  Unit style    : lj
  Current step  : 15000
  Time step     : 0.005
Per MPI rank memory allocation (min/avg/max) = 3.002 | 3.003 | 3.003 Mbytes
   Step          Temp          E_pair         E_mol          TotEng         Press     
     15000   0.61395476    -6.6489619      0             -5.7297352      4.245448     
Loop time of 1.36425e-06 on 4 procs for 0 steps with 540 atoms

91.6% CPU use with 4 MPI tasks x no OpenMP threads

MPI task timing breakdown:
Section |  min time  |  avg time  |  max time  |%varavg| %total
---------------------------------------------------------------
Pair    | 0          | 0          | 0          |   0.0 |  0.00
Neigh   | 0          | 0          | 0          |   0.0 |  0.00
Comm    | 0          | 0          | 0          |   0.0 |  0.00
Output  | 0          | 0          | 0          |   0.0 |  0.00
Modify  | 0          | 0          | 0          |   0.0 |  0.00
Other   |            | 1.364e-06  |            |       |100.00

Nlocal:            135 ave         144 max         126 min
Histogram: 1 0 0 1 0 0 1 0 0 1
Nghost:         1191.5 ave        1212 max        1177 min
Histogram: 1 0 1 0 1 0 0 0 0 1
Neighs:        6159.25 ave        6598 max        5855 min
Histogram: 1 0 1 0 1 0 0 0 0 1

Total # of neighbors = 24637
Ave neighs/atom = 45.624074
Neighbor list builds = 0
Dangerous builds = 0
Generated 0 of 1 mixed pair_coeff terms from geometric mixing rule
Setting up Verlet run ...
  Unit style    : lj
  Current step  : 15000
  Time step     : 0.005
Per MPI rank memory allocation (min/avg/max) = 3.002 | 3.003 | 3.003 Mbytes
   Step          Temp          E_pair         E_mol          TotEng         Press     
     15000   0.61395476    -6.6489619      0             -5.7297352      4.245448     
     16000   0.59951641    -6.583444       0             -5.6858347      4.6016287    
Loop time of 0.162017 on 4 procs for 1000 steps with 540 atoms

Performance: 2666378.797 tau/day, 6172.173 timesteps/s, 3.333 Matom-step/s
99.7% CPU use with 4 MPI tasks x no OpenMP threads

MPI task timing breakdown:
Section |  min time  |  avg time  |  max time  |%varavg| %total
---------------------------------------------------------------
Pair    | 0.060693   | 0.065486   | 0.070435   |   1.4 | 40.42
Neigh   | 0.013543   | 0.014213   | 0.014943   |   0.6 |  8.77
Comm    | 0.024426   | 0.029565   | 0.033501   |   2.2 | 18.25
Output  | 1.6375e-05 | 4.3281e-05 | 5.2458e-05 |   0.0 |  0.03
Modify  | 0.049858   | 0.050893   | 0.052392   |   0.4 | 31.41
Other   |            | 0.001817   |            |       |  1.12

Nlocal:            135 ave         140 max         130 min
Histogram: 2 0 0 0 0 0 0 0 0 2
Nghost:           1195 ave        1200 max        1190 min
Histogram: 1 0 0 0 1 0 1 0 0 1
Neighs:         6176.5 ave        6483 max        5639 min
Histogram: 1 0 0 0 0 0 1 0 1 1

Total # of neighbors = 24706
Ave neighs/atom = 45.751852
Neighbor list builds = 93
Dangerous builds = 0
Wall Position 0.82
Generated 0 of 1 mixed pair_coeff terms from geometric mixing rule
Setting up Verlet run ...
  Unit style    : lj
  Current step  : 16000
  Time step     : 0.005
Per MPI rank memory allocation (min/avg/max) = 3.002 | 3.003 | 3.003 Mbytes
   Step          Temp          E_pair         E_mol          TotEng         Press     
     16000   0.59951641    -6.583444       0             -5.6858347      4.6016287    
Loop time of 1.354e-06 on 4 procs for 0 steps with 540 atoms

92.3% CPU use with 4 MPI tasks x no OpenMP threads

MPI task timing breakdown:
Section |  min time  |  avg time  |  max time  |%varavg| %total
---------------------------------------------------------------
Pair    | 0          | 0          | 0          |   0.0 |  0.00
Neigh   | 0          | 0          | 0          |   0.0 |  0.00
Comm    | 0          | 0          | 0          |   0.0 |  0.00
Output  | 0          | 0          | 0          |   0.0 |  0.00
Modify  | 0          | 0          | 0          |   0.0 |  0.00
Other   |            | 1.354e-06  |            |       |100.00

Nlocal:            135 ave         140 max         130 min
Histogram: 2 0 0 0 0 0 0 0 0 2
Nghost:           1195 ave        1200 max        1190 min
Histogram: 1 0 0 0 1 0 1 0 0 1
Neighs:         6176.5 ave        6483 max        5639 min
Histogram: 1 0 0 0 0 0 1 0 1 1

Total # of neighbors = 24706
Ave neighs/atom = 45.751852
Neighbor list builds = 0
Dangerous builds = 0
Generated 0 of 1 mixed pair_coeff terms from geometric mixing rule
Setting up Verlet run ...
  Unit style    : lj
  Current step  : 16000
  Time step     : 0.005
Per MPI rank memory allocation (min/avg/max) = 3.002 | 3.003 | 3.003 Mbytes
   Step          Temp          E_pair         E_mol          TotEng         Press     
     16000   0.59951641    -6.583444       0             -5.6858347      4.6016287    
     17000   0.61297724    -6.5699377      0             -5.6521746      4.6827022    
Loop time of 0.160065 on 4 procs for 1000 steps with 540 atoms

Performance: 2698910.770 tau/day, 6247.479 timesteps/s, 3.374 Matom-step/s
99.6% CPU use with 4 MPI tasks x no OpenMP threads

MPI task timing breakdown:
Section |  min time  |  avg time  |  max time  |%varavg| %total
---------------------------------------------------------------
Pair    | 0.059759   | 0.065476   | 0.068913   |   1.4 | 40.91
Neigh   | 0.013656   | 0.014559   | 0.01527    |   0.5 |  9.10
Comm    | 0.021935   | 0.028055   | 0.03553    |   3.0 | 17.53
Output  | 1.1084e-05 | 3.6792e-05 | 4.5458e-05 |   0.0 |  0.02
Modify  | 0.048855   | 0.050124   | 0.052753   |   0.7 | 31.31
Other   |            | 0.001814   |            |       |  1.13

Nlocal:            135 ave         142 max         128 min
Histogram: 2 0 0 0 0 0 0 0 0 2
Nghost:           1192 ave        1208 max        1181 min
Histogram: 1 1 0 0 1 0 0 0 0 1
Neighs:           6187 ave        6536 max        5645 min
Histogram: 1 0 0 0 0 1 0 0 1 1

Total # of neighbors = 24748
Ave neighs/atom = 45.82963
Neighbor list builds = 95
Dangerous builds = 0
Wall Position 0.8
Generated 0 of 1 mixed pair_coeff terms from geometric mixing rule
Setting up Verlet run ...
  Unit style    : lj
  Current step  : 17000
  Time step     : 0.005
Per MPI rank memory allocation (min/avg/max) = 3.002 | 3.003 | 3.003 Mbytes
   Step          Temp          E_pair         E_mol          TotEng         Press     
     17000   0.61297724    -6.5699377      0             -5.6521746      4.6827022    
Loop time of 1.37525e-06 on 4 procs for 0 steps with 540 atoms

72.7% CPU use with 4 MPI tasks x no OpenMP threads

MPI task timing breakdown:
Section |  min time  |  avg time  |  max time  |%varavg| %total
---------------------------------------------------------------
Pair    | 0          | 0          | 0          |   0.0 |  0.00
Neigh   | 0          | 0          | 0          |   0.0 |  0.00
Comm    | 0          | 0          | 0          |   0.0 |  0.00
Output  | 0          | 0          | 0          |   0.0 |  0.00
Modify  | 0          | 0          | 0          |   0.0 |  0.00
Other   |            | 1.375e-06  |            |       |100.00

Nlocal:            135 ave         144 max         126 min
Histogram: 1 0 1 0 0 0 0 1 0 1
Nghost:         1190.5 ave        1208 max        1180 min
Histogram: 1 1 0 1 0 0 0 0 0 1
Neighs:         6179.5 ave        6625 max        5685 min
Histogram: 1 0 0 1 0 0 0 1 0 1

Total # of neighbors = 24718
Ave neighs/atom = 45.774074
Neighbor list builds = 0
Dangerous builds = 0
Generated 0 of 1 mixed pair_coeff terms from geometric mixing rule
Setting up Verlet run ...
  Unit style    : lj
  Current step  : 17000
  Time step     : 0.005
Per MPI rank memory allocation (min/avg/max) = 3.002 | 3.003 | 3.003 Mbytes
   Step          Temp          E_pair         E_mol          TotEng         Press     
     17000   0.61297724    -6.5699377      0             -5.6521746      4.6827022    
     18000   0.65076924    -6.5764653      0             -5.6021192      4.6867631    
Loop time of 0.157406 on 4 procs for 1000 steps with 540 atoms

Performance: 2744500.755 tau/day, 6353.011 timesteps/s, 3.431 Matom-step/s
99.6% CPU use with 4 MPI tasks x no OpenMP threads

MPI task timing breakdown:
Section |  min time  |  avg time  |  max time  |%varavg| %total
---------------------------------------------------------------
Pair    | 0.059629   | 0.065765   | 0.06882    |   1.5 | 41.78
Neigh   | 0.013481   | 0.014359   | 0.015087   |   0.5 |  9.12
Comm    | 0.020164   | 0.025206   | 0.032984   |   3.0 | 16.01
Output  | 1.3417e-05 | 4.5469e-05 | 5.6208e-05 |   0.0 |  0.03
Modify  | 0.049442   | 0.050223   | 0.051526   |   0.4 | 31.91
Other   |            | 0.001808   |            |       |  1.15

Nlocal:            135 ave         144 max         126 min
Histogram: 1 1 0 0 0 0 0 0 1 1
Nghost:         1193.5 ave        1202 max        1190 min
Histogram: 2 1 0 0 0 0 0 0 0 1
Neighs:        6189.75 ave        6581 max        5627 min
Histogram: 1 0 0 0 1 0 0 0 0 2

Total # of neighbors = 24759
Ave neighs/atom = 45.85
Neighbor list builds = 94
Dangerous builds = 0
Wall Position 0.78
Generated 0 of 1 mixed pair_coeff terms from geometric mixing rule
Setting up Verlet run ...
  Unit style    : lj
  Current step  : 18000
  Time step     : 0.005
Per MPI rank memory allocation (min/avg/max) = 3.002 | 3.003 | 3.003 Mbytes
   Step          Temp          E_pair         E_mol          TotEng         Press     
     18000   0.65076924    -6.5764653      0             -5.6021192      4.6867631    
Loop time of 9.895e-07 on 4 procs for 0 steps with 540 atoms

75.8% CPU use with 4 MPI tasks x no OpenMP threads

MPI task timing breakdown:
Section |  min time  |  avg time  |  max time  |%varavg| %total
---------------------------------------------------------------
Pair    | 0          | 0          | 0          |   0.0 |  0.00
Neigh   | 0          | 0          | 0          |   0.0 |  0.00
Comm    | 0          | 0          | 0          |   0.0 |  0.00
Output  | 0          | 0          | 0          |   0.0 |  0.00
Modify  | 0          | 0          | 0          |   0.0 |  0.00
Other   |            | 9.895e-07  |            |       |100.00

Nlocal:            135 ave         146 max         124 min
Histogram: 1 1 0 0 0 0 0 0 1 1
Nghost:           1196 ave        1209 max        1184 min
Histogram: 1 0 0 0 2 0 0 0 0 1
Neighs:        6177.25 ave        6653 max        5533 min
Histogram: 1 0 0 0 1 0 0 0 1 1

Total # of neighbors = 24709
Ave neighs/atom = 45.757407
Neighbor list builds = 0
Dangerous builds = 0
Generated 0 of 1 mixed pair_coeff terms from geometric mixing rule
Setting up Verlet run ...
  Unit style    : lj
  Current step  : 18000
  Time step     : 0.005
Per MPI rank memory allocation (min/avg/max) = 3.002 | 3.003 | 3.003 Mbytes
   Step          Temp          E_pair         E_mol          TotEng         Press     
     18000   0.65076924    -6.5764653      0             -5.6021192      4.6867631    
     19000   0.61815482    -6.6020534      0             -5.6765383      4.5176803    
Loop time of 0.152245 on 4 procs for 1000 steps with 540 atoms

Performance: 2837532.006 tau/day, 6568.361 timesteps/s, 3.547 Matom-step/s
99.7% CPU use with 4 MPI tasks x no OpenMP threads

MPI task timing breakdown:
Section |  min time  |  avg time  |  max time  |%varavg| %total
---------------------------------------------------------------
Pair    | 0.059561   | 0.065555   | 0.070143   |   1.5 | 43.06
Neigh   | 0.013538   | 0.014532   | 0.01528    |   0.5 |  9.54
Comm    | 0.015087   | 0.021295   | 0.028377   |   3.2 | 13.99
Output  | 9.5e-06    | 3.1782e-05 | 3.9375e-05 |   0.0 |  0.02
Modify  | 0.048693   | 0.049138   | 0.050068   |   0.2 | 32.28
Other   |            | 0.001693   |            |       |  1.11

Nlocal:            135 ave         140 max         130 min
Histogram: 1 1 0 0 0 0 0 0 0 2
Nghost:           1198 ave        1205 max        1188 min
Histogram: 1 0 0 1 0 0 0 0 0 2
Neighs:        6174.75 ave        6448 max        5689 min
Histogram: 1 0 0 0 0 0 0 1 1 1

Total # of neighbors = 24699
Ave neighs/atom = 45.738889
Neighbor list builds = 95
Dangerous builds = 0
Wall Position 0.76
Generated 0 of 1 mixed pair_coeff terms from geometric mixing rule
Setting up Verlet run ...
  Unit style    : lj
  Current step  : 19000
  Time step     : 0.005
Per MPI rank memory allocation (min/avg/max) = 3.002 | 3.003 | 3.003 Mbytes
   Step          Temp          E_pair         E_mol          TotEng         Press     
     19000   0.61815482    -6.6020534      0             -5.6765383      4.5176803    
Loop time of 1.17725e-06 on 4 procs for 0 steps with 540 atoms

106.2% CPU use with 4 MPI tasks x no OpenMP threads

MPI task timing breakdown:
Section |  min time  |  avg time  |  max time  |%varavg| %total
---------------------------------------------------------------
Pair    | 0          | 0          | 0          |   0.0 |  0.00
Neigh   | 0          | 0          | 0          |   0.0 |  0.00
Comm    | 0          | 0          | 0          |   0.0 |  0.00
Output  | 0          | 0          | 0          |   0.0 |  0.00
Modify  | 0          | 0          | 0          |   0.0 |  0.00
Other   |            | 1.177e-06  |            |       |100.00

Nlocal:            135 ave         140 max         130 min
Histogram: 1 1 0 0 0 0 0 0 0 2
Nghost:           1198 ave        1205 max        1188 min
Histogram: 1 0 0 1 0 0 0 0 0 2
Neighs:        6174.75 ave        6448 max        5689 min
Histogram: 1 0 0 0 0 0 0 1 1 1

Total # of neighbors = 24699
Ave neighs/atom = 45.738889
Neighbor list builds = 0
Dangerous builds = 0
Generated 0 of 1 mixed pair_coeff terms from geometric mixing rule
Setting up Verlet run ...
  Unit style    : lj
  Current step  : 19000
  Time step     : 0.005
Per MPI rank memory allocation (min/avg/max) = 3.002 | 3.003 | 3.003 Mbytes
   Step          Temp          E_pair         E_mol          TotEng         Press     
     19000   0.61815482    -6.6020534      0             -5.6765383      4.5176803    
     20000   0.62032827    -6.6154621      0             -5.6866928      4.4328247    
Loop time of 0.158202 on 4 procs for 1000 steps with 540 atoms

Performance: 2730691.125 tau/day, 6321.044 timesteps/s, 3.413 Matom-step/s
99.7% CPU use with 4 MPI tasks x no OpenMP threads

MPI task timing breakdown:
Section |  min time  |  avg time  |  max time  |%varavg| %total
---------------------------------------------------------------
Pair    | 0.057997   | 0.065546   | 0.071071   |   1.9 | 41.43
Neigh   | 0.013057   | 0.014351   | 0.01526    |   0.7 |  9.07
Comm    | 0.019975   | 0.026429   | 0.036085   |   3.7 | 16.71
Output  | 1.7917e-05 | 6.2865e-05 | 7.7958e-05 |   0.0 |  0.04
Modify  | 0.049231   | 0.050038   | 0.051166   |   0.3 | 31.63
Other   |            | 0.001774   |            |       |  1.12

Nlocal:            135 ave         144 max         126 min
Histogram: 1 0 0 1 0 0 1 0 0 1
Nghost:           1189 ave        1196 max        1182 min
Histogram: 1 1 0 0 0 0 0 0 1 1
Neighs:           6172 ave        6554 max        5492 min
Histogram: 1 0 0 0 0 0 0 2 0 1

Total # of neighbors = 24688
Ave neighs/atom = 45.718519
Neighbor list builds = 94
Dangerous builds = 0
Wall Position 0.74
Generated 0 of 1 mixed pair_coeff terms from geometric mixing rule
Setting up Verlet run ...
  Unit style    : lj
  Current step  : 20000
  Time step     : 0.005
Per MPI rank memory allocation (min/avg/max) = 3.002 | 3.003 | 3.003 Mbytes
   Step          Temp          E_pair         E_mol          TotEng         Press     
     20000   0.62032827    -6.6154621      0             -5.6866928      4.4328247    
Loop time of 1.21875e-06 on 4 procs for 0 steps with 540 atoms

82.1% CPU use with 4 MPI tasks x no OpenMP threads

MPI task timing breakdown:
Section |  min time  |  avg time  |  max time  |%varavg| %total
---------------------------------------------------------------
Pair    | 0          | 0          | 0          |   0.0 |  0.00
Neigh   | 0          | 0          | 0          |   0.0 |  0.00
Comm    | 0          | 0          | 0          |   0.0 |  0.00
Output  | 0          | 0          | 0          |   0.0 |  0.00
Modify  | 0          | 0          | 0          |   0.0 |  0.00
Other   |            | 1.219e-06  |            |       |100.00

Nlocal:            135 ave         143 max         127 min
Histogram: 1 0 0 1 0 0 1 0 0 1
Nghost:           1191 ave        1195 max        1181 min
Histogram: 1 0 0 0 0 0 0 0 1 2
Neighs:           6169 ave        6506 max        5566 min
Histogram: 1 0 0 0 0 0 0 1 1 1

Total # of neighbors = 24676
Ave neighs/atom = 45.696296
Neighbor list builds = 0
Dangerous builds = 0
Generated 0 of 1 mixed pair_coeff terms from geometric mixing rule
Setting up Verlet run ...
  Unit style    : lj
  Current step  : 20000
  Time step     : 0.005
Per MPI rank memory allocation (min/avg/max) = 3.002 | 3.003 | 3.003 Mbytes
   Step          Temp          E_pair         E_mol          TotEng         Press     
     20000   0.62032827    -6.6154621      0             -5.6866928      4.4328247    
     21000   0.59296784    -6.6046873      0             -5.7168827      4.4663294    
Loop time of 0.161036 on 4 procs for 1000 steps with 540 atoms

Performance: 2682622.854 tau/day, 6209.775 timesteps/s, 3.353 Matom-step/s
99.6% CPU use with 4 MPI tasks x no OpenMP threads

MPI task timing breakdown:
Section |  min time  |  avg time  |  max time  |%varavg| %total
---------------------------------------------------------------
Pair    | 0.059601   | 0.06548    | 0.070437   |   1.5 | 40.66
Neigh   | 0.013517   | 0.014488   | 0.015362   |   0.6 |  9.00
Comm    | 0.021736   | 0.027961   | 0.035285   |   2.9 | 17.36
Output  | 1.6375e-05 | 4.825e-05  | 5.9e-05    |   0.0 |  0.03
Modify  | 0.05071    | 0.051152   | 0.051568   |   0.2 | 31.76
Other   |            | 0.001907   |            |       |  1.18

Nlocal:            135 ave         142 max         128 min
Histogram: 1 1 0 0 0 0 0 0 1 1
Nghost:         1199.5 ave        1204 max        1192 min
Histogram: 1 0 0 0 0 0 1 0 1 1
Neighs:           6163 ave        6523 max        5691 min
Histogram: 1 0 0 0 1 0 0 0 1 1

Total # of neighbors = 24652
Ave neighs/atom = 45.651852
Neighbor list builds = 95
Dangerous builds = 0
Wall Position 0.72
Generated 0 of 1 mixed pair_coeff terms from geometric mixing rule
Setting up Verlet run ...
  Unit style    : lj
  Current step  : 21000
  Time step     : 0.005
Per MPI rank memory allocation (min/avg/max) = 3.002 | 3.003 | 3.003 Mbytes
   Step          Temp          E_pair         E_mol          TotEng         Press     
     21000   0.59296784    -6.6046873      0             -5.7168827      4.4663294    
Loop time of 1.4375e-06 on 4 procs for 0 steps with 540 atoms

69.6% CPU use with 4 MPI tasks x no OpenMP threads

MPI task timing breakdown:
Section |  min time  |  avg time  |  max time  |%varavg| %total
---------------------------------------------------------------
Pair    | 0          | 0          | 0          |   0.0 |  0.00
Neigh   | 0          | 0          | 0          |   0.0 |  0.00
Comm    | 0          | 0          | 0          |   0.0 |  0.00
Output  | 0          | 0          | 0          |   0.0 |  0.00
Modify  | 0          | 0          | 0          |   0.0 |  0.00
Other   |            | 1.438e-06  |            |       |100.00

Nlocal:            135 ave         143 max         127 min
Histogram: 1 1 0 0 0 0 0 0 1 1
Nghost:           1193 ave        1195 max        1190 min
Histogram: 1 0 0 0 0 0 1 0 1 1
Neighs:        6159.75 ave        6562 max        5683 min
Histogram: 1 0 0 1 0 0 0 1 0 1

Total # of neighbors = 24639
Ave neighs/atom = 45.627778
Neighbor list builds = 0
Dangerous builds = 0
Generated 0 of 1 mixed pair_coeff terms from geometric mixing rule
Setting up Verlet run ...
  Unit style    : lj
  Current step  : 21000
  Time step     : 0.005
Per MPI rank memory allocation (min/avg/max) = 3.002 | 3.003 | 3.003 Mbytes
   Step          Temp          E_pair         E_mol          TotEng         Press     
     21000   0.59296784    -6.6046873      0             -5.7168827      4.4663294    
     22000   0.59145899    -6.59632        0             -5.7107744      4.5229357    
Loop time of 0.166512 on 4 procs for 1000 steps with 540 atoms

Performance: 2594404.849 tau/day, 6005.567 timesteps/s, 3.243 Matom-step/s
99.4% CPU use with 4 MPI tasks x no OpenMP threads

MPI task timing breakdown:
Section |  min time  |  avg time  |  max time  |%varavg| %total
---------------------------------------------------------------
Pair    | 0.060143   | 0.065973   | 0.070673   |   1.5 | 39.62
Neigh   | 0.013473   | 0.0145     | 0.015139   |   0.6 |  8.71
Comm    | 0.025536   | 0.030985   | 0.038229   |   2.7 | 18.61
Output  | 1.7459e-05 | 6.0615e-05 | 7.5e-05    |   0.0 |  0.04
Modify  | 0.052532   | 0.052931   | 0.053224   |   0.1 | 31.79
Other   |            | 0.002062   |            |       |  1.24

Nlocal:            135 ave         148 max         122 min
Histogram: 1 0 0 0 1 1 0 0 0 1
Nghost:         1191.5 ave        1202 max        1180 min
Histogram: 1 0 1 0 0 0 0 0 1 1
Neighs:        6195.75 ave        6757 max        5248 min
Histogram: 1 0 0 0 0 0 1 0 1 1

Total # of neighbors = 24783
Ave neighs/atom = 45.894444
Neighbor list builds = 94
Dangerous builds = 0
Wall Position 0.7
Generated 0 of 1 mixed pair_coeff terms from geometric mixing rule
Setting up Verlet run ...
  Unit style    : lj
  Current step  : 22000
  Time step     : 0.005
Per MPI rank memory allocation (min/avg/max) = 3.002 | 3.003 | 3.003 Mbytes
   Step          Temp          E_pair         E_mol          TotEng         Press     
     22000   0.59145899    -6.59632        0             -5.7107744      4.5229357    
Loop time of 1.06275e-06 on 4 procs for 0 steps with 540 atoms

94.1% CPU use with 4 MPI tasks x no OpenMP threads

MPI task timing breakdown:
Section |  min time  |  avg time  |  max time  |%varavg| %total
---------------------------------------------------------------
Pair    | 0          | 0          | 0          |   0.0 |  0.00
Neigh   | 0          | 0          | 0          |   0.0 |  0.00
Comm    | 0          | 0          | 0          |   0.0 |  0.00
Output  | 0          | 0          | 0          |   0.0 |  0.00
Modify  | 0          | 0          | 0          |   0.0 |  0.00
Other   |            | 1.063e-06  |            |       |100.00

Nlocal:            135 ave         148 max         122 min
Histogram: 1 0 0 0 1 1 0 0 0 1
Nghost:         1191.5 ave        1202 max        1180 min
Histogram: 1 0 1 0 0 0 0 0 1 1
Neighs:        6195.75 ave        6757 max        5248 min
Histogram: 1 0 0 0 0 0 1 0 1 1

Total # of neighbors = 24783
Ave neighs/atom = 45.894444
Neighbor list builds = 0
Dangerous builds = 0
Generated 0 of 1 mixed pair_coeff terms from geometric mixing rule
Setting up Verlet run ...
  Unit style    : lj
  Current step  : 22000
  Time step     : 0.005
Per MPI rank memory allocation (min/avg/max) = 3.002 | 3.003 | 3.003 Mbytes
   Step          Temp          E_pair         E_mol          TotEng         Press     
     22000   0.59145899    -6.59632        0             -5.7107744      4.5229357    
     23000   0.60299176    -6.6007479      0             -5.6979352      4.4977652    
Loop time of 0.164292 on 4 procs for 1000 steps with 540 atoms

Performance: 2629458.442 tau/day, 6086.709 timesteps/s, 3.287 Matom-step/s
99.4% CPU use with 4 MPI tasks x no OpenMP threads

MPI task timing breakdown:
Section |  min time  |  avg time  |  max time  |%varavg| %total
---------------------------------------------------------------
Pair    | 0.060961   | 0.065864   | 0.070696   |   1.5 | 40.09
Neigh   | 0.013724   | 0.014434   | 0.01513    |   0.6 |  8.79
Comm    | 0.025317   | 0.030228   | 0.034657   |   2.3 | 18.40
Output  | 1.4542e-05 | 4.6761e-05 | 5.7583e-05 |   0.0 |  0.03
Modify  | 0.051069   | 0.051831   | 0.05306    |   0.3 | 31.55
Other   |            | 0.001888   |            |       |  1.15

Nlocal:            135 ave         146 max         124 min
Histogram: 1 0 0 0 1 1 0 0 0 1
Nghost:         1198.5 ave        1201 max        1196 min
Histogram: 1 0 0 0 1 0 1 0 0 1
Neighs:         6185.5 ave        6657 max        5926 min
Histogram: 2 0 0 1 0 0 0 0 0 1

Total # of neighbors = 24742
Ave neighs/atom = 45.818519
Neighbor list builds = 94
Dangerous builds = 0
Wall Position 0.68
Generated 0 of 1 mixed pair_coeff terms from geometric mixing rule
Setting up Verlet run ...
  Unit style    : lj
  Current step  : 23000
  Time step     : 0.005
Per MPI rank memory allocation (min/avg/max) = 3.002 | 3.003 | 3.003 Mbytes
   Step          Temp          E_pair         E_mol          TotEng         Press     
     23000   0.60299176    -6.6007479      0             -5.6979352      4.4977652    
Loop time of 1.354e-06 on 4 procs for 0 steps with 540 atoms

73.9% CPU use with 4 MPI tasks x no OpenMP threads

MPI task timing breakdown:
Section |  min time  |  avg time  |  max time  |%varavg| %total
---------------------------------------------------------------
Pair    | 0          | 0          | 0          |   0.0 |  0.00
Neigh   | 0          | 0          | 0          |   0.0 |  0.00
Comm    | 0          | 0          | 0          |   0.0 |  0.00
Output  | 0          | 0          | 0          |   0.0 |  0.00
Modify  | 0          | 0          | 0          |   0.0 |  0.00
Other   |            | 1.354e-06  |            |       |100.00

Nlocal:            135 ave         146 max         124 min
Histogram: 1 0 0 0 1 1 0 0 0 1
Nghost:           1197 ave        1203 max        1192 min
Histogram: 1 1 0 0 0 0 1 0 0 1
Neighs:         6185.5 ave        6662 max        5924 min
Histogram: 2 0 0 1 0 0 0 0 0 1

Total # of neighbors = 24742
Ave neighs/atom = 45.818519
Neighbor list builds = 0
Dangerous builds = 0
Generated 0 of 1 mixed pair_coeff terms from geometric mixing rule
Setting up Verlet run ...
  Unit style    : lj
  Current step  : 23000
  Time step     : 0.005
Per MPI rank memory allocation (min/avg/max) = 3.002 | 3.003 | 3.003 Mbytes
   Step          Temp          E_pair         E_mol          TotEng         Press     
     23000   0.60299176    -6.6007479      0             -5.6979352      4.4977652    
     24000   0.59338171    -6.5869448      0             -5.6985205      4.5649199    
Loop time of 0.158952 on 4 procs for 1000 steps with 540 atoms

Performance: 2717800.528 tau/day, 6291.205 timesteps/s, 3.397 Matom-step/s
99.6% CPU use with 4 MPI tasks x no OpenMP threads

MPI task timing breakdown:
Section |  min time  |  avg time  |  max time  |%varavg| %total
---------------------------------------------------------------
Pair    | 0.058859   | 0.065493   | 0.069957   |   1.7 | 41.20
Neigh   | 0.013363   | 0.014382   | 0.015106   |   0.6 |  9.05
Comm    | 0.021909   | 0.026438   | 0.033742   |   3.0 | 16.63
Output  | 9.5e-06    | 3.1792e-05 | 3.925e-05  |   0.0 |  0.02
Modify  | 0.050374   | 0.050873   | 0.051378   |   0.2 | 32.01
Other   |            | 0.001734   |            |       |  1.09

Nlocal:            135 ave         143 max         127 min
Histogram: 2 0 0 0 0 0 0 0 0 2
Nghost:           1197 ave        1218 max        1185 min
Histogram: 2 0 0 1 0 0 0 0 0 1
Neighs:        6173.75 ave        6613 max        5499 min
Histogram: 1 0 0 0 0 1 0 0 1 1

Total # of neighbors = 24695
Ave neighs/atom = 45.731481
Neighbor list builds = 94
Dangerous builds = 0
Wall Position 0.66
Generated 0 of 1 mixed pair_coeff terms from geometric mixing rule
Setting up Verlet run ...
  Unit style    : lj
  Current step  : 24000
  Time step     : 0.005
Per MPI rank memory allocation (min/avg/max) = 3.002 | 3.003 | 3.003 Mbytes
   Step          Temp          E_pair         E_mol          TotEng         Press     
     24000   0.59338171    -6.5869448      0             -5.6985205      4.5649199    
Loop time of 9.1675e-07 on 4 procs for 0 steps with 540 atoms

81.8% CPU use with 4 MPI tasks x no OpenMP threads

MPI task timing breakdown:
Section |  min time  |  avg time  |  max time  |%varavg| %total
---------------------------------------------------------------
Pair    | 0          | 0          | 0          |   0.0 |  0.00
Neigh   | 0          | 0          | 0          |   0.0 |  0.00
Comm    | 0          | 0          | 0          |   0.0 |  0.00
Output  | 0          | 0          | 0          |   0.0 |  0.00
Modify  | 0          | 0          | 0          |   0.0 |  0.00
Other   |            | 9.167e-07  |            |       |100.00

Nlocal:            135 ave         145 max         125 min
Histogram: 2 0 0 0 0 0 0 0 0 2
Nghost:           1192 ave        1210 max        1176 min
Histogram: 1 0 0 1 0 1 0 0 0 1
Neighs:        6169.75 ave        6674 max        5380 min
Histogram: 1 0 0 0 0 1 0 0 0 2

Total # of neighbors = 24679
Ave neighs/atom = 45.701852
Neighbor list builds = 0
Dangerous builds = 0
Generated 0 of 1 mixed pair_coeff terms from geometric mixing rule
Setting up Verlet run ...
  Unit style    : lj
  Current step  : 24000
  Time step     : 0.005
Per MPI rank memory allocation (min/avg/max) = 3.002 | 3.003 | 3.003 Mbytes
   Step          Temp          E_pair         E_mol          TotEng         Press     
     24000   0.59338171    -6.5869448      0             -5.6985205      4.5649199    
     25000   0.60919615    -6.5992595      0             -5.6871575      4.5222091    
Loop time of 0.155307 on 4 procs for 1000 steps with 540 atoms

Performance: 2781582.578 tau/day, 6438.849 timesteps/s, 3.477 Matom-step/s
99.7% CPU use with 4 MPI tasks x no OpenMP threads

MPI task timing breakdown:
Section |  min time  |  avg time  |  max time  |%varavg| %total
---------------------------------------------------------------
Pair    | 0.059372   | 0.065464   | 0.070158   |   1.5 | 42.15
Neigh   | 0.01359    | 0.014512   | 0.0152     |   0.5 |  9.34
Comm    | 0.018124   | 0.023494   | 0.030826   |   3.1 | 15.13
Output  | 1.1e-05    | 4.6406e-05 | 5.8334e-05 |   0.0 |  0.03
Modify  | 0.049742   | 0.050065   | 0.050567   |   0.1 | 32.24
Other   |            | 0.001727   |            |       |  1.11

Nlocal:            135 ave         142 max         128 min
Histogram: 1 0 0 0 1 1 0 0 0 1
Nghost:         1194.5 ave        1198 max        1190 min
Histogram: 1 0 1 0 0 0 0 0 0 2
Neighs:           6183 ave        6573 max        5974 min
Histogram: 1 1 1 0 0 0 0 0 0 1

Total # of neighbors = 24732
Ave neighs/atom = 45.8
Neighbor list builds = 95
Dangerous builds = 0
Wall Position 0.64
Generated 0 of 1 mixed pair_coeff terms from geometric mixing rule
Setting up Verlet run ...
  Unit style    : lj
  Current step  : 25000
  Time step     : 0.005
Per MPI rank memory allocation (min/avg/max) = 3.002 | 3.003 | 3.003 Mbytes
   Step          Temp          E_pair         E_mol          TotEng         Press     
     25000   0.60919615    -6.5992595      0             -5.6871575      4.5222091    
Loop time of 1.469e-06 on 4 procs for 0 steps with 540 atoms

85.1% CPU use with 4 MPI tasks x no OpenMP threads

MPI task timing breakdown:
Section |  min time  |  avg time  |  max time  |%varavg| %total
---------------------------------------------------------------
Pair    | 0          | 0          | 0          |   0.0 |  0.00
Neigh   | 0          | 0          | 0          |   0.0 |  0.00
Comm    | 0          | 0          | 0          |   0.0 |  0.00
Output  | 0          | 0          | 0          |   0.0 |  0.00
Modify  | 0          | 0          | 0          |   0.0 |  0.00
Other   |            | 1.469e-06  |            |       |100.00

Nlocal:            135 ave         143 max         127 min
Histogram: 1 0 0 0 1 1 0 0 0 1
Nghost:           1196 ave        1199 max        1192 min
Histogram: 1 0 1 0 0 0 0 0 0 2
Neighs:        6178.25 ave        6602 max        5929 min
Histogram: 1 1 1 0 0 0 0 0 0 1

Total # of neighbors = 24713
Ave neighs/atom = 45.764815
Neighbor list builds = 0
Dangerous builds = 0
Generated 0 of 1 mixed pair_coeff terms from geometric mixing rule
Setting up Verlet run ...
  Unit style    : lj
  Current step  : 25000
  Time step     : 0.005
Per MPI rank memory allocation (min/avg/max) = 3.002 | 3.003 | 3.003 Mbytes
   Step          Temp          E_pair         E_mol          TotEng         Press     
     25000   0.60919615    -6.5992595      0             -5.6871575      4.5222091    
     26000   0.610643      -6.5904895      0             -5.6762212      4.5583769    
Loop time of 0.153955 on 4 procs for 1000 steps with 540 atoms

Performance: 2806005.818 tau/day, 6495.384 timesteps/s, 3.508 Matom-step/s
99.7% CPU use with 4 MPI tasks x no OpenMP threads

MPI task timing breakdown:
Section |  min time  |  avg time  |  max time  |%varavg| %total
---------------------------------------------------------------
Pair    | 0.060053   | 0.065592   | 0.068655   |   1.4 | 42.60
Neigh   | 0.013441   | 0.0143     | 0.015011   |   0.5 |  9.29
Comm    | 0.017917   | 0.022899   | 0.02987    |   3.0 | 14.87
Output  | 1.6458e-05 | 7.1906e-05 | 9.0459e-05 |   0.0 |  0.05
Modify  | 0.048796   | 0.049402   | 0.050989   |   0.4 | 32.09
Other   |            | 0.001692   |            |       |  1.10

Nlocal:            135 ave         141 max         129 min
Histogram: 2 0 0 0 0 0 0 0 0 2
Nghost:           1190 ave        1193 max        1186 min
Histogram: 1 0 0 0 1 0 0 0 1 1
Neighs:        6180.75 ave        6464 max        5706 min
Histogram: 1 0 0 0 0 0 0 2 0 1

Total # of neighbors = 24723
Ave neighs/atom = 45.783333
Neighbor list builds = 93
Dangerous builds = 0
Wall Position 0.62
Generated 0 of 1 mixed pair_coeff terms from geometric mixing rule
Setting up Verlet run ...
  Unit style    : lj
  Current step  : 26000
  Time step     : 0.005
Per MPI rank memory allocation (min/avg/max) = 3.002 | 3.003 | 3.003 Mbytes
   Step          Temp          E_pair         E_mol          TotEng         Press     
     26000   0.610643      -6.5904895      0             -5.6762212      4.5583769    
Loop time of 1.2395e-06 on 4 procs for 0 steps with 540 atoms

80.7% CPU use with 4 MPI tasks x no OpenMP threads

MPI task timing breakdown:
Section |  min time  |  avg time  |  max time  |%varavg| %total
---------------------------------------------------------------
Pair    | 0          | 0          | 0          |   0.0 |  0.00
Neigh   | 0          | 0          | 0          |   0.0 |  0.00
Comm    | 0          | 0          | 0          |   0.0 |  0.00
Output  | 0          | 0          | 0          |   0.0 |  0.00
Modify  | 0          | 0          | 0          |   0.0 |  0.00
Other   |            | 1.239e-06  |            |       |100.00

Nlocal:            135 ave         141 max         129 min
Histogram: 1 0 1 0 0 0 0 1 0 1
Nghost:           1194 ave        1199 max        1189 min
Histogram: 1 0 0 0 0 2 0 0 0 1
Neighs:           6182 ave        6397 max        5636 min
Histogram: 1 0 0 0 0 0 0 0 0 3

Total # of neighbors = 24728
Ave neighs/atom = 45.792593
Neighbor list builds = 0
Dangerous builds = 0
Generated 0 of 1 mixed pair_coeff terms from geometric mixing rule
Setting up Verlet run ...
  Unit style    : lj
  Current step  : 26000
  Time step     : 0.005
Per MPI rank memory allocation (min/avg/max) = 3.002 | 3.003 | 3.003 Mbytes
   Step          Temp          E_pair         E_mol          TotEng         Press     
     26000   0.610643      -6.5904895      0             -5.6762212      4.5583769    
     27000   0.60167515    -6.5570059      0             -5.6561645      4.7462257    
Loop time of 0.161867 on 4 procs for 1000 steps with 540 atoms

Performance: 2668861.888 tau/day, 6177.921 timesteps/s, 3.336 Matom-step/s
99.7% CPU use with 4 MPI tasks x no OpenMP threads

MPI task timing breakdown:
Section |  min time  |  avg time  |  max time  |%varavg| %total
---------------------------------------------------------------
Pair    | 0.057503   | 0.065515   | 0.070266   |   1.9 | 40.47
Neigh   | 0.01324    | 0.014647   | 0.015548   |   0.8 |  9.05
Comm    | 0.023874   | 0.029037   | 0.039458   |   3.7 | 17.94
Output  | 1.35e-05   | 4.124e-05  | 5.0709e-05 |   0.0 |  0.03
Modify  | 0.049805   | 0.050811   | 0.052182   |   0.4 | 31.39
Other   |            | 0.001816   |            |       |  1.12

Nlocal:            135 ave         142 max         128 min
Histogram: 1 1 0 0 0 0 0 0 1 1
Nghost:         1191.5 ave        1196 max        1185 min
Histogram: 1 0 0 0 0 0 1 1 0 1
Neighs:           6173 ave        6541 max        5703 min
Histogram: 1 0 0 0 0 1 0 1 0 1

Total # of neighbors = 24692
Ave neighs/atom = 45.725926
Neighbor list builds = 96
Dangerous builds = 0
System init for write_data ...
Generated 0 of 1 mixed pair_coeff terms from geometric mixing rule
Total wall time: 0:00:04
